 vasp.6.4.1 05Apr23 (build Jun  6 2023 14:36:51) complex                         
 executed on        HPECrayEX_GCC date 2024.08.20  15:39:41
 running  256 mpi-ranks, with    1 threads/rank, on    2 nodes
 distrk:  each k-point on  256 cores,    1 groups
 distr:  one band on NCORE=   2 cores,  128 groups


--------------------------------------------------------------------------------------------------------


 INCAR:
   ALGO = Conjugate
   NCORE = 2
   PREC = Accurate
   EDIFF = 1E-7
   ENCUT = 1000
   ISMEAR = 0
   SIGMA = 0.01
   ISIF = 0
   SYMPREC = 1E-7
   IVDW = 11
   LWAVE = .FALSE.
   LCHARGE = .FALSE.
   LWAVE = .FALSE.
   LCHARGE = .FALSE.

 POTCAR:    PAW_PBE C_h 06Feb2004                 
 POTCAR:    PAW_PBE H_h 06Feb2004                 
 POTCAR:    PAW_PBE O_h 06Feb2004                 
 POTCAR:    PAW_PBE C_h 06Feb2004                 
   VRHFIN =C: s2p2                                                                                  
   LEXCH  = PE                                                                                      
   EATOM  =   147.1560 eV,   10.8157 Ry                                                             
                                                                                                    
   TITEL  = PAW_PBE C_h 06Feb2004                                                                   
   LULTRA =        F    use ultrasoft PP ?                                                          
   IUNSCR =        1    unscreen: 0-lin 1-nonlin 2-no                                               
   RPACOR =    0.800    partial core radius                                                         
   POMASS =   12.011; ZVAL   =    4.000    mass and valenz                                          
   RCORE  =    1.100    outmost cutoff radius                                                       
   RWIGS  =    1.630; RWIGS  =    0.863    wigner-seitz radius (au A)                               
   ENMAX  =  700.000; ENMIN  =  500.000 eV                                                          
   ICORE  =        2    local potential                                                             
   LCOR   =        T    correct aug charges                                                         
   LPAW   =        T    paw PP                                                                      
   EAUG   =  946.768                                                                                
   DEXC   =    0.000                                                                                
   RMAX   =    1.128    core radius for proj-oper                                                   
   RAUG   =    1.300    factor for augmentation sphere                                              
   RDEP   =    1.162    radius for radial grids                                                     
   RDEPT  =    1.088    core radius for aug-charge                                                  
                                                                                                    
   Atomic configuration                                                                             
    4 entries                                                                                       
     n  l   j            E        occ.                                                              
     1  0  0.50      -273.3789   2.0000                                                             
     2  0  0.50       -13.7508   2.0000                                                             
     2  1  0.50        -5.2854   2.0000                                                             
     3  2  1.50        -5.4423   0.0000                                                             
   Description                                                                                      
     l       E           TYP  RCUT    TYP  RCUT                                                     
     0    -13.7508458     23  1.100                                                                 
     0     -8.2022199     23  1.100                                                                 
     1     -5.2854383     23  1.100                                                                 
     1      1.1560700     23  1.100                                                                 
     2     -5.4423304      7  1.100                                                                 
  local pseudopotential read in
  partial core-charges read in
  partial kinetic energy density read in
  atomic valenz-charges read in
  non local Contribution for L=           0  read in
    real space projection operators read in
  non local Contribution for L=           0  read in
    real space projection operators read in
  non local Contribution for L=           1  read in
    real space projection operators read in
  non local Contribution for L=           1  read in
    real space projection operators read in
    PAW grid and wavefunctions read in

   number of l-projection  operators is LMAX  =           4
   number of lm-projection operators is LMMAX =           8

 POTCAR:    PAW_PBE H_h 06Feb2004                 
   VRHFIN =H: ultrasoft test                                                                        
   LEXCH  = PE                                                                                      
   EATOM  =    12.4884 eV,    0.9179 Ry                                                             
                                                                                                    
   TITEL  = PAW_PBE H_h 06Feb2004                                                                   
   LULTRA =        F    use ultrasoft PP ?                                                          
   IUNSCR =        0    unscreen: 0-lin 1-nonlin 2-no                                               
   RPACOR =    0.000    partial core radius                                                         
   POMASS =    1.000; ZVAL   =    1.000    mass and valenz                                          
   RCORE  =    0.800    outmost cutoff radius                                                       
   RWIGS  =    0.700; RWIGS  =    0.370    wigner-seitz radius (au A)                               
   ENMAX  =  700.000; ENMIN  =  350.000 eV                                                          
   RCLOC  =    0.701    cutoff for local pot                                                        
   LCOR   =        T    correct aug charges                                                         
   LPAW   =        T    paw PP                                                                      
   EAUG   = 1000.000                                                                                
   RMAX   =    0.819    core radius for proj-oper                                                   
   RAUG   =    1.000    factor for augmentation sphere                                              
   RDEP   =    0.817    radius for radial grids                                                     
   RDEPT  =    0.817    core radius for aug-charge                                                  
                                                                                                    
   Atomic configuration                                                                             
    2 entries                                                                                       
     n  l   j            E        occ.                                                              
     1  0  0.50        -6.4927   1.0000                                                             
     2  1  0.50        -3.4015   0.0000                                                             
   Description                                                                                      
     l       E           TYP  RCUT    TYP  RCUT                                                     
     0     -6.4927493     23  0.800                                                                 
     0      6.8029130     23  0.800                                                                 
     1     -6.8029130     23  0.800                                                                 
  local pseudopotential read in
  atomic valenz-charges read in
  non local Contribution for L=           0  read in
    real space projection operators read in
  non local Contribution for L=           0  read in
    real space projection operators read in
  non local Contribution for L=           1  read in
    real space projection operators read in
    PAW grid and wavefunctions read in

   number of l-projection  operators is LMAX  =           3
   number of lm-projection operators is LMMAX =           5

 POTCAR:    PAW_PBE O_h 06Feb2004                 
   VRHFIN =O: s2p4                                                                                  
   LEXCH  = PE                                                                                      
   EATOM  =   432.3788 eV,   31.7789 Ry                                                             
                                                                                                    
   TITEL  = PAW_PBE O_h 06Feb2004                                                                   
   LULTRA =        F    use ultrasoft PP ?                                                          
   IUNSCR =        1    unscreen: 0-lin 1-nonlin 2-no                                               
   RPACOR =    0.800    partial core radius                                                         
   POMASS =   16.000; ZVAL   =    6.000    mass and valenz                                          
   RCORE  =    1.100    outmost cutoff radius                                                       
   RWIGS  =    1.400; RWIGS  =    0.741    wigner-seitz radius (au A)                               
   ENMAX  =  700.000; ENMIN  =  500.000 eV                                                          
   ICORE  =        2    local potential                                                             
   LCOR   =        T    correct aug charges                                                         
   LPAW   =        T    paw PP                                                                      
   EAUG   =  888.804                                                                                
   DEXC   =    0.000                                                                                
   RMAX   =    1.128    core radius for proj-oper                                                   
   RAUG   =    1.300    factor for augmentation sphere                                              
   RDEP   =    1.125    radius for radial grids                                                     
   RDEPT  =    1.088    core radius for aug-charge                                                  
                                                                                                    
   Atomic configuration                                                                             
    4 entries                                                                                       
     n  l   j            E        occ.                                                              
     1  0  0.50      -514.6923   2.0000                                                             
     2  0  0.50       -23.9615   2.0000                                                             
     2  1  0.50        -9.0305   4.0000                                                             
     3  2  1.50        -9.5241   0.0000                                                             
   Description                                                                                      
     l       E           TYP  RCUT    TYP  RCUT                                                     
     0    -23.9615319     23  1.100                                                                 
     0    -25.3221145     23  1.100                                                                 
     1     -9.0304911     23  1.100                                                                 
     1     -5.4802209     23  1.100                                                                 
     2     -9.5240782      7  1.100                                                                 
  local pseudopotential read in
  partial core-charges read in
  partial kinetic energy density read in
  atomic valenz-charges read in
  non local Contribution for L=           0  read in
    real space projection operators read in
  non local Contribution for L=           0  read in
    real space projection operators read in
  non local Contribution for L=           1  read in
    real space projection operators read in
  non local Contribution for L=           1  read in
    real space projection operators read in
    PAW grid and wavefunctions read in

   number of l-projection  operators is LMAX  =           4
   number of lm-projection operators is LMMAX =           8

 -----------------------------------------------------------------------------
|                                                                             |
|               ----> ADVICE to this user running VASP <----                  |
|                                                                             |
|     You have a (more or less) 'large supercell' and for larger cells it     |
|     might be more efficient to use real-space projection operators.         |
|     Therefore, try LREAL= Auto in the INCAR file.                           |
|     Mind: For very accurate calculation, you might also keep the            |
|     reciprocal projection scheme (i.e. LREAL=.FALSE.).                      |
|                                                                             |
 -----------------------------------------------------------------------------

  PAW_PBE C_h 06Feb2004                 :
 energy of atom  1       EATOM= -147.1560
 kinetic energy error for atom=    0.0031 (will be added to EATOM!!)
  PAW_PBE H_h 06Feb2004                 :
 energy of atom  2       EATOM=  -12.4884
 kinetic energy error for atom=    0.0006 (will be added to EATOM!!)
  PAW_PBE O_h 06Feb2004                 :
 energy of atom  3       EATOM= -432.3788
 kinetic energy error for atom=    0.0171 (will be added to EATOM!!)


 POSCAR:  C  H  O
  positions in cartesian coordinates
  No initial velocities read in
 exchange correlation table for  LEXCH =        8
   RHO(1)=    0.500       N(1)  =     2000
   RHO(2)=  100.500       N(2)  =     4000

 VTST: version 4.1, (05/19/21)

 CHAIN: initializing optimizer
 
 OPT: Using VASP Dynamics algorithm
 CHAIN: Read ICHAIN            0

 POSCAR:  C  H  O
  positions in cartesian coordinates
  No initial velocities read in



--------------------------------------------------------------------------------------------------------


 ion  position               nearest neighbor table
   1  0.041  0.932  0.485-  49 1.10  57 1.10   5 1.51  26 1.52
   2  0.459  0.068  0.015-  50 1.10  58 1.10   6 1.51  25 1.52
   3  0.041  0.568  0.235-  39 1.10  59 1.10   7 1.51  20 1.52
   4  0.459  0.432  0.265-  40 1.10  60 1.10   8 1.51  19 1.52
   5  0.131  0.966  0.379-  81 1.24  85 1.32   1 1.51
   6  0.369  0.034  0.121-  82 1.24  86 1.32   2 1.51
   7  0.131  0.534  0.129-  83 1.24  87 1.32   3 1.51
   8  0.369  0.466  0.371-  84 1.24  88 1.32   4 1.51
   9  0.041  0.932  0.985-  37 1.10  69 1.10  13 1.51  18 1.52
  10  0.459  0.068  0.515-  38 1.10  70 1.10  14 1.51  17 1.52
  11  0.041  0.568  0.735-  51 1.10  71 1.10  15 1.51  28 1.52
  12  0.459  0.432  0.765-  52 1.10  72 1.10  16 1.51  27 1.52
  13  0.131  0.966  0.879-  89 1.24  93 1.32   9 1.51
  14  0.369  0.034  0.621-  90 1.24  94 1.32  10 1.51
  15  0.131  0.534  0.629-  91 1.24  95 1.32  11 1.51
  16  0.369  0.466  0.871-  92 1.24  96 1.32  12 1.51
  17  0.541  0.932  0.485-  73 1.10  33 1.10  21 1.51  10 1.52
  18  0.959  0.068  0.015-  74 1.10  34 1.10  22 1.51   9 1.52
  19  0.541  0.568  0.235-  63 1.10  35 1.10  23 1.51   4 1.52
  20  0.959  0.432  0.265-  64 1.10  36 1.10  24 1.51   3 1.52
  21  0.631  0.966  0.379-  97 1.24 101 1.32  17 1.51
  22  0.869  0.034  0.121-  98 1.24 102 1.32  18 1.51
  23  0.631  0.534  0.129-  99 1.24 103 1.32  19 1.51
  24  0.869  0.466  0.371- 100 1.24 104 1.32  20 1.51
  25  0.541  0.932  0.985-  61 1.10  45 1.10  29 1.51   2 1.52
  26  0.959  0.068  0.515-  62 1.10  46 1.10  30 1.51   1 1.52
  27  0.541  0.568  0.735-  75 1.10  47 1.10  31 1.51  12 1.52
  28  0.959  0.432  0.765-  76 1.10  48 1.10  32 1.51  11 1.52
  29  0.631  0.966  0.879- 105 1.24 109 1.32  25 1.51
  30  0.869  0.034  0.621- 106 1.24 110 1.32  26 1.51
  31  0.631  0.534  0.629- 107 1.24 111 1.32  27 1.51
  32  0.869  0.466  0.871- 108 1.24 112 1.32  28 1.51
  33  0.487  0.833  0.451-  17 1.10
  34  0.013  0.167  0.049-  18 1.10
  35  0.487  0.667  0.201-  19 1.10
  36  0.013  0.333  0.299-  20 1.10
  37  0.093  0.893  0.072-   9 1.10
  38  0.407  0.107  0.428-  10 1.10
  39  0.093  0.607  0.322-   3 1.10
  40  0.407  0.393  0.179-   4 1.10
  41  0.275  0.884  0.297-  85 1.02
  42  0.225  0.116  0.203-  86 1.02
  43  0.275  0.616  0.047-  87 1.02
  44  0.225  0.384  0.453-  88 1.02
  45  0.487  0.833  0.951-  25 1.10
  46  0.013  0.167  0.549-  26 1.10
  47  0.487  0.667  0.701-  27 1.10
  48  0.013  0.333  0.799-  28 1.10
  49  0.093  0.893  0.572-   1 1.10
  50  0.407  0.107  0.928-   2 1.10
  51  0.093  0.607  0.822-  11 1.10
  52  0.407  0.393  0.679-  12 1.10
  53  0.275  0.884  0.797-  93 1.02
  54  0.225  0.116  0.703-  94 1.02
  55  0.275  0.616  0.547-  95 1.02
  56  0.225  0.384  0.953-  96 1.02
  57  0.987  0.833  0.451-   1 1.10
  58  0.513  0.167  0.049-   2 1.10
  59  0.987  0.667  0.201-   3 1.10
  60  0.513  0.333  0.299-   4 1.10
  61  0.593  0.893  0.072-  25 1.10
  62  0.907  0.107  0.428-  26 1.10
  63  0.593  0.607  0.322-  19 1.10
  64  0.907  0.393  0.179-  20 1.10
  65  0.775  0.884  0.297- 101 1.02
  66  0.725  0.116  0.203- 102 1.02
  67  0.775  0.616  0.047- 103 1.02
  68  0.725  0.384  0.453- 104 1.02
  69  0.987  0.833  0.951-   9 1.10
  70  0.513  0.167  0.549-  10 1.10
  71  0.987  0.667  0.701-  11 1.10
  72  0.513  0.333  0.799-  12 1.10
  73  0.593  0.893  0.572-  17 1.10
  74  0.907  0.107  0.928-  18 1.10
  75  0.593  0.607  0.822-  27 1.10
  76  0.907  0.393  0.679-  28 1.10
  77  0.775  0.884  0.797- 109 1.02
  78  0.725  0.116  0.703- 110 1.02
  79  0.775  0.616  0.547- 111 1.02
  80  0.725  0.384  0.953- 112 1.02
  81  0.125  0.081  0.308-   5 1.24
  82  0.375  0.919  0.192-   6 1.24
  83  0.125  0.419  0.058-   7 1.24
  84  0.375  0.581  0.442-   8 1.24
  85  0.217  0.860  0.370-  41 1.02   5 1.32
  86  0.283  0.140  0.130-  42 1.02   6 1.32
  87  0.217  0.640  0.120-  43 1.02   7 1.32
  88  0.283  0.360  0.380-  44 1.02   8 1.32
  89  0.125  0.081  0.808-  13 1.24
  90  0.375  0.919  0.692-  14 1.24
  91  0.125  0.419  0.558-  15 1.24
  92  0.375  0.581  0.942-  16 1.24
  93  0.217  0.860  0.870-  53 1.02  13 1.32
  94  0.283  0.140  0.630-  54 1.02  14 1.32
  95  0.217  0.640  0.620-  55 1.02  15 1.32
  96  0.283  0.360  0.880-  56 1.02  16 1.32
  97  0.625  0.081  0.308-  21 1.24
  98  0.875  0.919  0.192-  22 1.24
  99  0.625  0.419  0.058-  23 1.24
 100  0.875  0.581  0.442-  24 1.24
 101  0.717  0.860  0.370-  65 1.02  21 1.32
 102  0.783  0.140  0.130-  66 1.02  22 1.32
 103  0.717  0.640  0.120-  67 1.02  23 1.32
 104  0.783  0.360  0.380-  68 1.02  24 1.32
 105  0.625  0.081  0.808-  29 1.24
 106  0.875  0.919  0.692-  30 1.24
 107  0.625  0.419  0.558-  31 1.24
 108  0.875  0.581  0.942-  32 1.24
 109  0.717  0.860  0.870-  77 1.02  29 1.32
 110  0.783  0.140  0.630-  78 1.02  30 1.32
 111  0.717  0.640  0.620-  79 1.02  31 1.32
 112  0.783  0.360  0.880-  80 1.02  32 1.32

  LATTYP: Found a simple monoclinic cell.
 ALAT       =    10.2155749854
 B/A-ratio  =     0.8555789677
 C/A-ratio  =     1.0701095005
 COS(beta)  =    -0.0297950169
  
  Lattice vectors:
  
 A1 = (  -0.2922970000,   0.0000000000,  10.2113924000)
 A2 = (   0.0000000000,  -8.7402311000,   0.0000000000)
 A3 = (  10.9317762000,   0.0000000000,  -0.0129284000)


Analysis of symmetry for initial positions (statically):
=====================================================================
 Subroutine PRICEL returns following result:
 
  LATTYP: Found a simple monoclinic cell.
 ALAT       =     5.1077874927
 B/A-ratio  =     1.7111579353
 C/A-ratio  =     1.0701095005
 COS(beta)  =    -0.0297950169
  
  Lattice vectors:
  
 A1 = (  -0.1461485000,   0.0000000000,   5.1056962000)
 A2 = (   0.0000000000,  -8.7402311000,   0.0000000000)
 A3 = (   5.4658881000,   0.0000000000,  -0.0064642000)
 
   4 primitive cells build up your supercell.
 

 Routine SETGRP: Setting up the symmetry group for a 
 simple monoclinic supercell.


 Subroutine GETGRP returns: Found  1 space group operations
 (whereof  1 operations were pure point group operations)
 out of a pool of  4 trial point group operations.


The static configuration has the point symmetry C_1 .


Analysis of symmetry for dynamics (positions and initial velocities):
=====================================================================
 Subroutine PRICEL returns following result:
 
  LATTYP: Found a simple monoclinic cell.
 ALAT       =     5.1077874927
 B/A-ratio  =     1.7111579353
 C/A-ratio  =     1.0701095005
 COS(beta)  =    -0.0297950169
  
  Lattice vectors:
  
 A1 = (  -0.1461485000,   0.0000000000,   5.1056962000)
 A2 = (   0.0000000000,  -8.7402311000,   0.0000000000)
 A3 = (   5.4658881000,   0.0000000000,  -0.0064642000)
 
   4 primitive cells build up your supercell.
 

 Routine SETGRP: Setting up the symmetry group for a 
 simple monoclinic supercell.


 Subroutine GETGRP returns: Found  1 space group operations
 (whereof  1 operations were pure point group operations)
 out of a pool of  4 trial point group operations.


The dynamic configuration has the point symmetry C_1 .


 Subroutine INISYM returns: Found  1 space group operations
 (whereof  1 operations are pure point group operations),
 and found     4 'primitive' translations


----------------------------------------------------------------------------------------

                                     Primitive cell                                     

  volume of cell :     243.9068

  direct lattice vectors                    reciprocal lattice vectors
    -0.146148500  0.000000000  5.105696200     0.000231640  0.000000000  0.195866306
     0.000000000 -8.740231100  0.000000000     0.000000000 -0.114413451  0.000000000
     5.465888100  0.000000000 -0.006464200     0.182959079  0.000000000  0.005237130

  length of vectors
     5.107787493  8.740231100  5.465891922     0.195866443  0.114413451  0.183034019

  position of ions in fractional coordinates (direct lattice)
     0.969083870  0.067591525  0.082283052
     0.030916130  0.932419916  0.917735244
     0.469093274  0.432421695  0.082269719
     0.530926289  0.567589746  0.917730804
     0.758586519  0.033576406  0.262425073
     0.241413481  0.966423594  0.737593223
     0.258576337  0.466425373  0.262411216
     0.741423640  0.533574627  0.737588784
     0.902934360  0.167394378  0.973452476
     0.097085203  0.832617063  0.026548048
     0.402924201  0.332607401  0.973456915
     0.597075776  0.667392599  0.026543085
     0.143001532  0.107373082  0.186633762
     0.856998468  0.892626918  0.813384533
     0.643011692  0.392628697  0.186629323
     0.357007872  0.607371303  0.813371201
     0.593292078  0.115587968  0.549668872
     0.406727485  0.884423474  0.450331651
     0.093281919  0.384425253  0.549673312
     0.906718081  0.615586189  0.450344984
     0.616181523  0.918873364  0.250567480
     0.383818477  0.081138078  0.749450816
     0.116190950  0.581136299  0.250572443
     0.883828637  0.418875143  0.749446377
     0.740587606  0.139694882  0.433059647
     0.259412371  0.860316560  0.566940353
     0.240577446  0.360318339  0.433064086
     0.759422530  0.639693103  0.566935914

  ion indices of the primitive-cell ions
   primitive index   ion index
                 1           1
                 2          26
                 3           3
                 4          20
                 5           5
                 6          30
                 7          15
                 8          24
                 9          57
                10          46
                11          71
                12          36
                13          49
                14          62
                15          39
                16          76
                17          41
                18          54
                19          55
                20          44
                21          81
                22         106
                23          91
                24         100
                25          85
                26          94
                27          95
                28          88

----------------------------------------------------------------------------------------



 KPOINTS: auto                                    

Automatic generation of k-mesh.
 Grid dimensions read from file:
 generate k-points for:    3    3    3

 Generating k-lattice:

  Cartesian coordinates                     Fractional coordinates (reciprocal lattice)
     0.030493180 -0.000000000  0.000872855     0.333333333  0.000000000 -0.000000000
    -0.000000000  0.038137817 -0.000000000     0.000000000  0.333333333  0.000000000
     0.000038607 -0.000000000  0.032644384    -0.000000000  0.000000000  0.333333333

  Length of vectors
     0.030505670  0.038137817  0.032644407

  Shift w.r.t. Gamma in fractional coordinates (k-lattice)
     0.000000000  0.000000000  0.000000000

 
 Subroutine IBZKPT returns following result:
 ===========================================
 
 Found     14 irreducible k-points:
 
 Following reciprocal coordinates:
            Coordinates               Weight
  0.000000  0.000000  0.000000      1.000000
  0.333333  0.000000  0.000000      2.000000
  0.000000  0.333333  0.000000      2.000000
  0.333333  0.333333  0.000000      2.000000
 -0.333333  0.333333  0.000000      2.000000
  0.000000  0.000000  0.333333      2.000000
  0.333333  0.000000  0.333333      2.000000
 -0.333333  0.000000  0.333333      2.000000
  0.000000  0.333333  0.333333      2.000000
  0.000000  0.333333 -0.333333      2.000000
  0.333333  0.333333  0.333333      2.000000
 -0.333333  0.333333 -0.333333      2.000000
 -0.333333  0.333333  0.333333      2.000000
  0.333333  0.333333 -0.333333      2.000000
 
 Following cartesian coordinates:
            Coordinates               Weight
  0.000000  0.000000  0.000000      1.000000
  0.030493  0.000000  0.000873      2.000000
  0.000000  0.038138  0.000000      2.000000
  0.030493  0.038138  0.000873      2.000000
 -0.030493  0.038138 -0.000873      2.000000
  0.000039  0.000000  0.032644      2.000000
  0.030532  0.000000  0.033517      2.000000
 -0.030455  0.000000  0.031772      2.000000
  0.000039  0.038138  0.032644      2.000000
 -0.000039  0.038138 -0.032644      2.000000
  0.030532  0.038138  0.033517      2.000000
 -0.030532  0.038138 -0.033517      2.000000
 -0.030455  0.038138  0.031772      2.000000
  0.030455  0.038138 -0.031772      2.000000
 


--------------------------------------------------------------------------------------------------------




 Dimension of arrays:
   k-points           NKPTS =     14   k-points in BZ     NKDIM =     14   number of bands    NBANDS=    256
   number of dos      NEDOS =    301   number of ions     NIONS =    112
   non local maximal  LDIM  =      4   non local SUM 2l+1 LMDIM =      8
   total plane-waves  NPLWV = ******
   max r-space proj   IRMAX =      1   max aug-charges    IRDMAX=   8918
   dimension x,y,z NGX =   120 NGY =   90 NGZ =  108
   dimension x,y,z NGXF=   240 NGYF=  180 NGZF=  216
   support grid    NGXF=   240 NGYF=  180 NGZF=  216
   ions per type =              32  48  32
   NGX,Y,Z   is equivalent  to a cutoff of  18.25, 17.12, 17.58 a.u.
   NGXF,Y,Z  is equivalent  to a cutoff of  36.50, 34.24, 35.15 a.u.

 SYSTEM =  unknown system                          
 POSCAR =   C  H  O                                

 Startparameter for this run:
   NWRITE =      2    write-flag & timer
   PREC   = accura    normal or accurate (medium, high low for compatibility)
   ISTART =      0    job   : 0-new  1-cont  2-samecut
   ICHARG =      2    charge: 1-file 2-atom 10-const
   ISPIN  =      1    spin polarized calculation?
   LNONCOLLINEAR =      F non collinear calculations
   LSORBIT =      F    spin-orbit coupling
   INIWAV =      1    electr: 0-lowe 1-rand  2-diag
   LASPH  =      F    aspherical Exc in radial PAW
 Electronic Relaxation 1
   ENCUT  = 1000.0 eV  73.50 Ry    8.57 a.u.  28.19 22.54 26.34*2*pi/ulx,y,z
   ENINI  = 1000.0     initial cutoff
   ENAUG  = 1000.0 eV  augmentation charge cutoff
   NELM   =     60;   NELMIN=  2; NELMDL= -5     # of ELM steps 
   EDIFF  = 0.1E-06   stopping-criterion for ELM
   LREAL  =      F    real-space projection
   NLSPLINE    = F    spline interpolate recip. space projectors
   LCOMPAT=      F    compatible to vasp.4.4
   GGA_COMPAT  = T    GGA compatible to vasp.4.4-vasp.4.6
   LMAXPAW     = -100 max onsite density
   LMAXMIX     =    2 max onsite mixed and CHGCAR
   VOSKOWN=      0    Vosko Wilk Nusair interpolation
   ROPT   =    0.00000   0.00000   0.00000
 Ionic relaxation
   EDIFFG = 0.1E-05   stopping-criterion for IOM
   NSW    =      0    number of steps for IOM
   NBLOCK =      1;   KBLOCK =      1    inner block; outer block 
   IBRION =     -1    ionic relax: 0-MD 1-quasi-New 2-CG
   NFREE  =      0    steps in history (QN), initial steepest desc. (CG)
   ISIF   =      0    stress and relaxation
   IWAVPR =     10    prediction:  0-non 1-charg 2-wave 3-comb
   ISYM   =      2    0-nonsym 1-usesym 2-fastsym
   LCORR  =      T    Harris-Foulkes like correction to forces

   POTIM  = 0.5000    time-step for ionic-motion
   TEIN   =    0.0    initial temperature
   TEBEG  =    0.0;   TEEND  =   0.0 temperature during run
   SMASS  =  -3.00    Nose mass-parameter (am)
   estimated Nose-frequenzy (Omega)   =  0.10E-29 period in steps = 0.13E+47 mass=  -0.273E-26a.u.
   SCALEE = 1.0000    scale energy and forces
   NPACO  =    256;   APACO  = 10.0  distance and # of slots for P.C.
   PSTRESS=    0.0 pullay stress

  Mass of Ions in am
   POMASS =  12.01  1.00 16.00
  Ionic Valenz
   ZVAL   =   4.00  1.00  6.00
  Atomic Wigner-Seitz radii
   RWIGS  =  -1.00 -1.00 -1.00
  virtual crystal weights 
   VCA    =   1.00  1.00  1.00
   NELECT =     368.0000    total number of electrons
   NUPDOWN=      -1.0000    fix difference up-down

 DOS related values:
   EMIN   =  10.00;   EMAX   =-10.00  energy-range for DOS
   EFERMI =   0.00;   METHOD = LEGACY      
   ISMEAR =     0;   SIGMA  =   0.01  broadening in eV -4-tet -1-fermi 0-gaus

 Electronic relaxation 2 (details)
   IALGO  =     58    algorithm
   LDIAG  =      T    sub-space diagonalisation (order eigenvalues)
   LSUBROT=      F    optimize rotation matrix (better conditioning)
   TURBO    =      0    0=normal 1=particle mesh
   IRESTART =      0    0=no restart 2=restart with 2 vectors
   NREBOOT  =      0    no. of reboots
   NMIN     =      0    reboot dimension
   EREF     =   0.00    reference energy to select bands
   IMIX   =      4    mixing-type and parameters
     AMIX     =   0.40;   BMIX     =  1.00
     AMIX_MAG =   1.60;   BMIX_MAG =  1.00
     AMIN     =   0.10
     WC   =   100.;   INIMIX=   1;  MIXPRE=   1;  MAXMIX= -45

 Intra band minimization:
   WEIMIN = 0.0000     energy-eigenvalue tresh-hold
   EBREAK =  0.98E-10  absolut break condition
   DEPER  =   0.30     relativ break condition  

   TIME   =   0.40     timestep for ELM

  volume/ion in A,a.u.               =       8.71        58.78
  Fermi-wavevector in a.u.,A,eV,Ry     =   1.182849  2.235261 19.036357  1.399133
  Thomas-Fermi vector in A             =   2.319095

 Write flags
   LWAVE        =      F    write WAVECAR
   LDOWNSAMPLE  =      F    k-point downsampling of WAVECAR
   LCHARG       =      T    write CHGCAR
   LVTOT        =      F    write LOCPOT, total local potential
   LVHAR        =      F    write LOCPOT, Hartree potential only
   LELF         =      F    write electronic localiz. function (ELF)
   LORBIT       =      0    0 simple, 1 ext, 2 COOP (PROOUT), +10 PAW based schemes


 Dipole corrections
   LMONO  =      F    monopole corrections only (constant potential shift)
   LDIPOL =      F    correct potential (dipole corrections)
   IDIPOL =      0    1-x, 2-y, 3-z, 4-all directions 
   EPSILON=  1.0000000 bulk dielectric constant

 Exchange correlation treatment:
   GGA     =    --    GGA type
   LEXCH   =     8    internal setting for exchange type
   LIBXC   =     F    Libxc                    
   VOSKOWN =     0    Vosko Wilk Nusair interpolation
   LHFCALC =     F    Hartree Fock is set to
   LHFONE  =     F    Hartree Fock one center treatment
   AEXX    =    0.0000 exact exchange contribution

 Linear response parameters
   LEPSILON=     F    determine dielectric tensor
   LRPA    =     F    only Hartree local field effects (RPA)
   LNABLA  =     F    use nabla operator in PAW spheres
   LVEL    =     F    velocity operator in full k-point grid
   CSHIFT  =0.1000    complex shift for real part using Kramers Kronig
   OMEGAMAX=  -1.0    maximum frequency
   DEG_THRESHOLD= 0.2000000E-02 threshold for treating states as degnerate
   RTIME   =   -0.100 relaxation time in fs
  (WPLASMAI=    0.000 imaginary part of plasma frequency in eV, 0.658/RTIME)
   DFIELD  = 0.0000000 0.0000000 0.0000000 field for delta impulse in time

  Optional k-point grid parameters
   LKPOINTS_OPT  =     F    use optional k-point grid
   KPOINTS_OPT_MODE=     1    mode for optional k-point grid

 Orbital magnetization related:
   ORBITALMAG=     F  switch on orbital magnetization
   LCHIMAG   =     F  perturbation theory with respect to B field
   DQ        =  0.001000  dq finite difference perturbation B field
   LLRAUG    =     F  two centre corrections for induced B field
   LBONE     =     F  B-component reconstruction in AE one-centre
   LVGVCALC  =     T  calculate vGv susceptibility
   LVGVAPPL  =     F  apply vGv susceptibility instead of pGv for G=0

 Random number generation:
   RANDOM_GENERATOR = DEFAULT
   PCG_SEED         = not used


--------------------------------------------------------------------------------------------------------


 Static calculation
 charge density and potential will be updated during run
 non-spin polarized calculation
 Conjugate gradient for all bands (Freysoldt, et al. PRB 79, 241103 (2009))
 preconditioned conjugated gradient                                        
 perform sub-space diagonalisation
    before iterative eigenvector-optimisation
 modified Broyden-mixing scheme, WC =      100.0
 initial mixing is a Kerker type mixing with AMIX =  0.4000 and BMIX =      1.0000
 Hartree-type preconditioning will be used
 using additional bands           72
 reciprocal scheme for non local part
 use partial core corrections
 no Harris-corrections to forces 
 use gradient corrections 
 use of overlap-Matrix (Vanderbilt PP)
 Gauss-broadening in eV      SIGMA  =   0.01


--------------------------------------------------------------------------------------------------------


  energy-cutoff  :     1000.00
  volume of cell :      975.63
      direct lattice vectors                 reciprocal lattice vectors
    10.931776200  0.000000000 -0.012928400     0.091479540 -0.000000000  0.002618565
     0.000000000  8.740231100  0.000000000    -0.000000000  0.114413451 -0.000000000
    -0.292297000  0.000000000 10.211392400     0.000115820 -0.000000000  0.097933153

  length of vectors
    10.931783845  8.740231100 10.215574985     0.091517010  0.114413451  0.097933221



 k-points in units of 2pi/SCALE and weight: auto                                    
   0.00000000  0.00000000  0.00000000       0.037
   0.03049318  0.00000000  0.00087286       0.074
   0.00000000  0.03813782  0.00000000       0.074
   0.03049318  0.03813782  0.00087286       0.074
  -0.03049318  0.03813782 -0.00087286       0.074
   0.00003861  0.00000000  0.03264438       0.074
   0.03053179  0.00000000  0.03351724       0.074
  -0.03045457  0.00000000  0.03177153       0.074
   0.00003861  0.03813782  0.03264438       0.074
  -0.00003861  0.03813782 -0.03264438       0.074
   0.03053179  0.03813782  0.03351724       0.074
  -0.03053179  0.03813782 -0.03351724       0.074
  -0.03045457  0.03813782  0.03177153       0.074
   0.03045457  0.03813782 -0.03177153       0.074

 k-points in reciprocal lattice and weights: auto                                    
   0.00000000  0.00000000  0.00000000       0.037
   0.33333333  0.00000000  0.00000000       0.074
   0.00000000  0.33333333  0.00000000       0.074
   0.33333333  0.33333333  0.00000000       0.074
  -0.33333333  0.33333333  0.00000000       0.074
   0.00000000  0.00000000  0.33333333       0.074
   0.33333333  0.00000000  0.33333333       0.074
  -0.33333333  0.00000000  0.33333333       0.074
   0.00000000  0.33333333  0.33333333       0.074
   0.00000000  0.33333333 -0.33333333       0.074
   0.33333333  0.33333333  0.33333333       0.074
  -0.33333333  0.33333333 -0.33333333       0.074
  -0.33333333  0.33333333  0.33333333       0.074
   0.33333333  0.33333333 -0.33333333       0.074

 position of ions in fractional coordinates (direct lattice) 
   0.04114153  0.93240847  0.48454194
   0.45886762  0.06758008  0.01545806
   0.04113486  0.56757830  0.23454664
   0.45886540  0.43241025  0.26546314
   0.13121254  0.96642359  0.37929326
   0.36879661  0.03357641  0.12070674
   0.13120561  0.53357463  0.12928817
   0.36879439  0.46642537  0.37071182
   0.04114153  0.93240847  0.98454194
   0.45886762  0.06758008  0.51545806
   0.04113486  0.56757830  0.73454664
   0.45886540  0.43241025  0.76546314
   0.13121254  0.96642359  0.87929326
   0.36879661  0.03357641  0.62070674
   0.13120561  0.53357463  0.62928817
   0.36879439  0.46642537  0.87071182
   0.54114153  0.93240847  0.48454194
   0.95886762  0.06758008  0.01545806
   0.54113486  0.56757830  0.23454664
   0.95886540  0.43241025  0.26546314
   0.63121254  0.96642359  0.37929326
   0.86879661  0.03357641  0.12070674
   0.63120561  0.53357463  0.12928817
   0.86879439  0.46642537  0.37071182
   0.54114153  0.93240847  0.98454194
   0.95886762  0.06758008  0.51545806
   0.54113486  0.56757830  0.73454664
   0.95886540  0.43241025  0.76546314
   0.63121254  0.96642359  0.87929326
   0.86879661  0.03357641  0.62070674
   0.63120561  0.53357463  0.62928817
   0.86879439  0.46642537  0.87071182
   0.48672624  0.83260562  0.45146718
   0.01327402  0.16738294  0.04854260
   0.48672846  0.66739260  0.20146210
   0.01327154  0.33260740  0.29853789
   0.09331688  0.89262692  0.07150077
   0.40669227  0.10737308  0.42849923
   0.09331466  0.60737130  0.32150585
   0.40668560  0.39262870  0.17850394
   0.27483444  0.88441203  0.29664604
   0.22516583  0.11557653  0.20336374
   0.27483666  0.61557475  0.04664096
   0.22517249  0.38441381  0.45335904
   0.48672624  0.83260562  0.95146718
   0.01327402  0.16738294  0.54854260
   0.48672846  0.66739260  0.70146210
   0.01327154  0.33260740  0.79853789
   0.09331688  0.89262692  0.57150077
   0.40669227  0.10737308  0.92849923
   0.09331466  0.60737130  0.82150585
   0.40668560  0.39262870  0.67850394
   0.27483444  0.88441203  0.79664604
   0.22516583  0.11557653  0.70336374
   0.27483666  0.61557475  0.54664096
   0.22517249  0.38441381  0.95335904
   0.98672624  0.83260562  0.45146718
   0.51327402  0.16738294  0.04854260
   0.98672846  0.66739260  0.20146210
   0.51327154  0.33260740  0.29853789
   0.59331688  0.89262692  0.07150077
   0.90669227  0.10737308  0.42849923
   0.59331466  0.60737130  0.32150585
   0.90668560  0.39262870  0.17850394
   0.77483444  0.88441203  0.29664604
   0.72516583  0.11557653  0.20336374
   0.77483666  0.61557475  0.04664096
   0.72517249  0.38441381  0.45335904
   0.98672624  0.83260562  0.95146718
   0.51327402  0.16738294  0.54854260
   0.98672846  0.66739260  0.70146210
   0.51327154  0.33260740  0.79853789
   0.59331688  0.89262692  0.57150077
   0.90669227  0.10737308  0.92849923
   0.59331466  0.60737130  0.82150585
   0.90668560  0.39262870  0.67850394
   0.77483444  0.88441203  0.79664604
   0.72516583  0.11557653  0.70336374
   0.77483666  0.61557475  0.54664096
   0.72517249  0.38441381  0.95335904
   0.12528374  0.08112664  0.30809076
   0.37472541  0.91886192  0.19190924
   0.12528622  0.41886370  0.05809547
   0.37472319  0.58112486  0.44191432
   0.21652982  0.86030512  0.37029380
   0.28347018  0.13968344  0.12970619
   0.21653204  0.63968166  0.12028872
   0.28346796  0.36030690  0.37971127
   0.12528374  0.08112664  0.80809076
   0.37472541  0.91886192  0.69190924
   0.12528622  0.41886370  0.55809547
   0.37472319  0.58112486  0.94191432
   0.21652982  0.86030512  0.87029380
   0.28347018  0.13968344  0.62970619
   0.21653204  0.63968166  0.62028872
   0.28346796  0.36030690  0.87971127
   0.62528374  0.08112664  0.30809076
   0.87472541  0.91886192  0.19190924
   0.62528622  0.41886370  0.05809547
   0.87472319  0.58112486  0.44191432
   0.71652982  0.86030512  0.37029380
   0.78347018  0.13968344  0.12970619
   0.71653204  0.63968166  0.12028872
   0.78346796  0.36030690  0.37971127
   0.62528374  0.08112664  0.80809076
   0.87472541  0.91886192  0.69190924
   0.62528622  0.41886370  0.55809547
   0.87472319  0.58112486  0.94191432
   0.71652982  0.86030512  0.87029380
   0.78347018  0.13968344  0.62970619
   0.71653204  0.63968166  0.62028872
   0.78346796  0.36030690  0.87971127

 position of ions in cartesian coordinates  (Angst):
   0.30811980  8.14946555  4.94731594
   5.01171980  0.59066555  0.15191594
   0.38111980  4.96076555  2.39451594
   4.93861980  3.77936555  2.70481594
   1.32351980  8.44676555  3.87141594
   3.99631980  0.29346555  1.22781594
   1.39651980  4.66356555  1.31851594
   3.92321980  4.07666555  3.78071594
   0.16197130  8.14946555 10.05301214
   4.86557130  0.59066555  5.25761214
   0.23497130  4.96076555  7.50021214
   4.79247130  3.77936555  7.81051214
   1.17737130  8.44676555  8.97711214
   3.85017130  0.29346555  6.33351214
   1.25037130  4.66356555  6.42421214
   3.77707130  4.07666555  8.88641214
   5.77400790  8.14946555  4.94085174
  10.47760790  0.59066555  0.14545174
   5.84700790  4.96076555  2.38805174
  10.40450790  3.77936555  2.69835174
   6.78940790  8.44676555  3.86495174
   9.46220790  0.29346555  1.22135174
   6.86240790  4.66356555  1.31205174
   9.38910790  4.07666555  3.77425174
   5.62785940  8.14946555 10.04654794
  10.33145940  0.59066555  5.25114794
   5.70085940  4.96076555  7.49374794
  10.25835940  3.77936555  7.80404794
   6.64325940  8.44676555  8.97064794
   9.31605940  0.29346555  6.32704794
   6.71625940  4.66356555  6.41774794
   9.24295940  4.07666555  8.87994794
   5.18881980  7.27716555  4.60381594
   0.13091980  1.46296555  0.49551594
   5.26191980  5.83316555  2.05091594
   0.05781980  2.90706555  3.04831594
   0.99921980  7.80176555  0.72891594
   4.32061980  0.93846555  4.37031594
   0.92611980  5.30856555  3.28181594
   4.39361980  3.43166555  1.81751594
   2.91771980  7.72996555  3.02561594
   2.40201980  1.01016555  2.07371594
   2.99081980  5.38026555  0.47271594
   2.32901980  3.35986555  4.62651594
   5.04267130  7.27716555  9.70951214
  -0.01522870  1.46296555  5.60121214
   5.11577130  5.83316555  7.15661214
  -0.08832870  2.90706555  8.15401214
   0.85307130  7.80176555  5.83461214
   4.17447130  0.93846555  9.47601214
   0.77997130  5.30856555  8.38751214
   4.24747130  3.43166555  6.92321214
   2.77157130  7.72996555  8.13131214
   2.25587130  1.01016555  7.17941214
   2.84467130  5.38026555  5.57841214
   2.18287130  3.35986555  9.73221214
  10.65470790  7.27716555  4.59735174
   5.59680790  1.46296555  0.48905174
  10.72780790  5.83316555  2.04445174
   5.52370790  2.90706555  3.04185174
   6.46510790  7.80176555  0.72245174
   9.78650790  0.93846555  4.36385174
   6.39200790  5.30856555  3.27535174
   9.85950790  3.43166555  1.81105174
   8.38360790  7.72996555  3.01915174
   7.86790790  1.01016555  2.06725174
   8.45670790  5.38026555  0.46625174
   7.79490790  3.35986555  4.62005174
  10.50855940  7.27716555  9.70304794
   5.45065940  1.46296555  5.59474794
  10.58165940  5.83316555  7.15014794
   5.37755940  2.90706555  8.14754794
   6.31895940  7.80176555  5.82814794
   9.64035940  0.93846555  9.46954794
   6.24585940  5.30856555  8.38104794
   9.71335940  3.43166555  6.91674794
   8.23745940  7.72996555  8.12484794
   7.72175940  1.01016555  7.17294794
   8.31055940  5.38026555  5.57194794
   7.64875940  3.35986555  9.72574794
   1.27951980  0.70906555  3.14441594
   4.04031980  8.03106555  1.95481594
   1.35261980  3.66096555  0.59161594
   3.96721980  5.07916555  4.50771594
   2.25881980  7.51926555  3.77841594
   3.06091980  1.22086555  1.32081594
   2.33191980  5.59096555  1.22551594
   2.98781980  3.14916555  3.87371594
   1.13337130  0.70906555  8.25011214
   3.89417130  8.03106555  7.06051214
   1.20647130  3.66096555  5.69731214
   3.82107130  5.07916555  9.61341214
   2.11267130  7.51926555  8.88411214
   2.91477130  1.22086555  6.42651214
   2.18577130  5.59096555  6.33121214
   2.84167130  3.14916555  8.97941214
   6.74540790  0.70906555  3.13795174
   9.50620790  8.03106555  1.94835174
   6.81850790  3.66096555  0.58515174
   9.43310790  5.07916555  4.50125174
   7.72470790  7.51926555  3.77195174
   8.52680790  1.22086555  1.31435174
   7.79780790  5.59096555  1.21905174
   8.45370790  3.14916555  3.86725174
   6.59925940  0.70906555  8.24364794
   9.36005940  8.03106555  7.05404794
   6.67235940  3.66096555  5.69084794
   9.28695940  5.07916555  9.60694794
   7.57855940  7.51926555  8.87764794
   8.38065940  1.22086555  6.42004794
   7.65165940  5.59096555  6.32474794
   8.30755940  3.14916555  8.97294794



--------------------------------------------------------------------------------------------------------


 k-point   1 :   0.0000 0.0000 0.0000  plane waves:   70067
 k-point   2 :   0.3333 0.0000 0.0000  plane waves:   70130
 k-point   3 :   0.0000 0.3333 0.0000  plane waves:   70077
 k-point   4 :   0.3333 0.3333 0.0000  plane waves:   70058
 k-point   5 :  -0.3333 0.3333 0.0000  plane waves:   70058
 k-point   6 :   0.0000 0.0000 0.3333  plane waves:   70053
 k-point   7 :   0.3333 0.0000 0.3333  plane waves:   70065
 k-point   8 :  -0.3333 0.0000 0.3333  plane waves:   70052
 k-point   9 :   0.0000 0.3333 0.3333  plane waves:   70057
 k-point  10 :   0.0000 0.3333-0.3333  plane waves:   70057
 k-point  11 :   0.3333 0.3333 0.3333  plane waves:   70023
 k-point  12 :  -0.3333 0.3333-0.3333  plane waves:   70023
 k-point  13 :  -0.3333 0.3333 0.3333  plane waves:   70057
 k-point  14 :   0.3333 0.3333-0.3333  plane waves:   70057

 maximum and minimum number of plane-waves per node :     35113    34942

 maximum number of plane-waves:     70130
 maximum index in each direction: 
   IXMAX=   28   IYMAX=   22   IZMAX=   26
   IXMIN=  -28   IYMIN=  -22   IZMIN=  -26


 parallel 3D FFT for wavefunctions:
    minimum data exchange during FFTs selected (reduces bandwidth)
 parallel 3D FFT for charge:
    minimum data exchange during FFTs selected (reduces bandwidth)


 total amount of memory used by VASP MPI-rank0   280305. kBytes
=======================================================================

   base      :      30000. kBytes
   nonl-proj :     157696. kBytes
   fftplans  :      18694. kBytes
   grid      :      25920. kBytes
   one-center:        172. kBytes
   wavefun   :      47823. kBytes

     INWAV:  cpu time      0.0000: real time      0.0000
 Broyden mixing: mesh for mixing (old mesh)
   NGX = 57   NGY = 45   NGZ = 53
  (NGX  =240   NGY  =180   NGZ  =216)
  gives a total of 135945 points

 initial charge density was supplied:
 charge density of overlapping atoms calculated
 number of electron     368.0000000 magnetization 
 keeping initial charge density in first step


--------------------------------------------------------------------------------------------------------


 Maximum index for augmentation-charges          229 (set IRDMAX)


--------------------------------------------------------------------------------------------------------


 First call to EWALD:  gamma=   0.179
 Maximum number of real-space cells 3x 3x 3
 Maximum number of reciprocal cells 3x 2x 3

    FEWALD:  cpu time      0.0083: real time      0.0086


--------------------------------------- Ionic step        1  -------------------------------------------




--------------------------------------- Iteration      1(   1)  ---------------------------------------


    POTLOK:  cpu time      0.1107: real time      0.1118
    SETDIJ:  cpu time      0.0160: real time      0.0165
    TRIAL :  cpu time     31.3024: real time     31.3220
    CORREC:  cpu time      0.0011: real time      0.0011
    --------------------------------------------
      LOOP:  cpu time     31.4657: real time     31.4870

 eigenvalue-minimisations  :  7168
 total energy-change (2. order) : 0.3082337E+04  (-0.2914206E+05)
 number of electron     368.0000000 magnetization 
 augmentation part      368.0000000 magnetization 

 Free energy of the ion-electron system (eV)
  ---------------------------------------------------
  alpha Z        PSCENC =       397.03144280
  Ewald energy   TEWEN  =    -10480.24895922
  -Hartree energ DENC   =     -7305.62785033
  -exchange      EXHF   =         0.00000000
  -V(xc)+E(xc)   XCENC  =      1187.60082773
  PAW double counting   =     14805.17147965   -14676.00321097
  entropy T*S    EENTRO =        -0.00029156
  eigenvalues    EBANDS =        10.53129439
  atomic energy  EATOM  =     19143.88231737
  ---------------------------------------------------
  free energy    TOTEN  =      3082.33704986 eV

  energy without entropy =     3082.33734142  energy(sigma->0) =     3082.33719564


--------------------------------------------------------------------------------------------------------




--------------------------------------- Iteration      1(   2)  ---------------------------------------


    TRIAL :  cpu time     81.9359: real time     81.9812
    CORREC:  cpu time      0.0003: real time      0.0003
    --------------------------------------------
      LOOP:  cpu time     81.9516: real time     82.0108

 eigenvalue-minimisations  : 11904
 total energy-change (2. order) :-0.3498430E+04  (-0.3450501E+04)
 number of electron     368.0000000 magnetization 
 augmentation part      368.0000000 magnetization 

 Free energy of the ion-electron system (eV)
  ---------------------------------------------------
  alpha Z        PSCENC =       397.03144280
  Ewald energy   TEWEN  =    -10480.24895922
  -Hartree energ DENC   =     -7305.62785033
  -exchange      EXHF   =         0.00000000
  -V(xc)+E(xc)   XCENC  =      1187.60082773
  PAW double counting   =     14805.17147965   -14676.00321097
  entropy T*S    EENTRO =        -0.00000000
  eigenvalues    EBANDS =     -3487.89877068
  atomic energy  EATOM  =     19143.88231737
  ---------------------------------------------------
  free energy    TOTEN  =      -416.09272365 eV

  energy without entropy =     -416.09272365  energy(sigma->0) =     -416.09272365


--------------------------------------------------------------------------------------------------------




--------------------------------------- Iteration      1(   3)  ---------------------------------------


    TRIAL :  cpu time     32.5393: real time     32.5609
    CORREC:  cpu time      0.0003: real time      0.0003
    --------------------------------------------
      LOOP:  cpu time     32.5555: real time     32.5929

 eigenvalue-minimisations  :  7168
 total energy-change (2. order) :-0.3241818E+03  (-0.3236922E+03)
 number of electron     368.0000000 magnetization 
 augmentation part      368.0000000 magnetization 

 Free energy of the ion-electron system (eV)
  ---------------------------------------------------
  alpha Z        PSCENC =       397.03144280
  Ewald energy   TEWEN  =    -10480.24895922
  -Hartree energ DENC   =     -7305.62785033
  -exchange      EXHF   =         0.00000000
  -V(xc)+E(xc)   XCENC  =      1187.60082773
  PAW double counting   =     14805.17147965   -14676.00321097
  entropy T*S    EENTRO =        -0.00000000
  eigenvalues    EBANDS =     -3812.08058463
  atomic energy  EATOM  =     19143.88231737
  ---------------------------------------------------
  free energy    TOTEN  =      -740.27453760 eV

  energy without entropy =     -740.27453760  energy(sigma->0) =     -740.27453760


--------------------------------------------------------------------------------------------------------




--------------------------------------- Iteration      1(   4)  ---------------------------------------


    TRIAL :  cpu time     70.6621: real time     70.7062
    CORREC:  cpu time      0.0003: real time      0.0003
    --------------------------------------------
      LOOP:  cpu time     70.6923: real time     70.7366

 eigenvalue-minimisations  : 10752
 total energy-change (2. order) :-0.7181816E+01  (-0.7172920E+01)
 number of electron     368.0000000 magnetization 
 augmentation part      368.0000000 magnetization 

 Free energy of the ion-electron system (eV)
  ---------------------------------------------------
  alpha Z        PSCENC =       397.03144280
  Ewald energy   TEWEN  =    -10480.24895922
  -Hartree energ DENC   =     -7305.62785033
  -exchange      EXHF   =         0.00000000
  -V(xc)+E(xc)   XCENC  =      1187.60082773
  PAW double counting   =     14805.17147965   -14676.00321097
  entropy T*S    EENTRO =        -0.00000000
  eigenvalues    EBANDS =     -3819.26240016
  atomic energy  EATOM  =     19143.88231737
  ---------------------------------------------------
  free energy    TOTEN  =      -747.45635312 eV

  energy without entropy =     -747.45635312  energy(sigma->0) =     -747.45635312


--------------------------------------------------------------------------------------------------------




--------------------------------------- Iteration      1(   5)  ---------------------------------------


    TRIAL :  cpu time     43.1295: real time     43.1572
    CORREC:  cpu time      0.0003: real time      0.0003
    CHARGE:  cpu time      1.3950: real time      1.3965
    --------------------------------------------
      LOOP:  cpu time     44.5419: real time     44.5854

 eigenvalue-minimisations  :  8576
 total energy-change (2. order) :-0.1368118E+00  (-0.1368091E+00)
 number of electron     368.0000001 magnetization 
 augmentation part        2.5007146 magnetization 

 Free energy of the ion-electron system (eV)
  ---------------------------------------------------
  alpha Z        PSCENC =       397.03144280
  Ewald energy   TEWEN  =    -10480.24895922
  -Hartree energ DENC   =     -7305.62785033
  -exchange      EXHF   =         0.00000000
  -V(xc)+E(xc)   XCENC  =      1187.60082773
  PAW double counting   =     14805.17147965   -14676.00321097
  entropy T*S    EENTRO =        -0.00000000
  eigenvalues    EBANDS =     -3819.39921196
  atomic energy  EATOM  =     19143.88231737
  ---------------------------------------------------
  free energy    TOTEN  =      -747.59316492 eV

  energy without entropy =     -747.59316492  energy(sigma->0) =     -747.59316492


--------------------------------------------------------------------------------------------------------




--------------------------------------- Iteration      1(   6)  ---------------------------------------


    POTLOK:  cpu time      0.0527: real time      0.0527
    SETDIJ:  cpu time      0.0035: real time      0.0035
    TRIAL :  cpu time     12.1049: real time     12.1130
    CORREC:  cpu time      4.0897: real time      4.0917
    CHARGE:  cpu time      1.3494: real time      1.3506
    --------------------------------------------
      LOOP:  cpu time     17.6136: real time     17.6403

 eigenvalue-minimisations  :     0
 total energy-change (2. order) : 0.1108356E+03  (-0.5062243E+02)
 number of electron     368.0000001 magnetization 
 augmentation part        1.7440350 magnetization 

 Free energy of the ion-electron system (eV)
  ---------------------------------------------------
  alpha Z        PSCENC =       397.03144280
  Ewald energy   TEWEN  =    -10480.24895922
  -Hartree energ DENC   =     -8989.59566136
  -exchange      EXHF   =         0.00000000
  -V(xc)+E(xc)   XCENC  =      1299.55077284
  PAW double counting   =    148994.76370088  -148889.42388109
  entropy T*S    EENTRO =        -0.00000000
  eigenvalues    EBANDS =     -2112.71732576
  atomic energy  EATOM  =     19143.88231737
  ---------------------------------------------------
  free energy    TOTEN  =      -636.75759353 eV

  energy without entropy =     -636.75759353  energy(sigma->0) =     -636.75759353


--------------------------------------------------------------------------------------------------------




--------------------------------------- Iteration      1(   7)  ---------------------------------------


    POTLOK:  cpu time      0.0491: real time      0.0491
    SETDIJ:  cpu time      0.0032: real time      0.0032
    TRIAL :  cpu time     11.6717: real time     11.6795
    CORREC:  cpu time      4.0497: real time      4.0523
    CHARGE:  cpu time      1.3491: real time      1.3510
    --------------------------------------------
      LOOP:  cpu time     17.1521: real time     17.1645

 eigenvalue-minimisations  :     0
 total energy-change (2. order) :-0.5067084E+02  (-0.6510475E+01)
 number of electron     368.0000001 magnetization 
 augmentation part        1.4848141 magnetization 

 Free energy of the ion-electron system (eV)
  ---------------------------------------------------
  alpha Z        PSCENC =       397.03144280
  Ewald energy   TEWEN  =    -10480.24895922
  -Hartree energ DENC   =     -8150.63286059
  -exchange      EXHF   =         0.00000000
  -V(xc)+E(xc)   XCENC  =      1247.48751173
  PAW double counting   =    196737.66133250  -196620.65127554
  entropy T*S    EENTRO =        -0.00000000
  eigenvalues    EBANDS =     -2961.95793840
  atomic energy  EATOM  =     19143.88231737
  ---------------------------------------------------
  free energy    TOTEN  =      -687.42842935 eV

  energy without entropy =     -687.42842935  energy(sigma->0) =     -687.42842935


--------------------------------------------------------------------------------------------------------




--------------------------------------- Iteration      1(   8)  ---------------------------------------


    POTLOK:  cpu time      0.0491: real time      0.0491
    SETDIJ:  cpu time      0.0032: real time      0.0032
    TRIAL :  cpu time     11.6700: real time     11.6782
    CORREC:  cpu time      4.0499: real time      4.0526
    CHARGE:  cpu time      1.3501: real time      1.3509
    --------------------------------------------
      LOOP:  cpu time     17.1358: real time     17.1638

 eigenvalue-minimisations  :     0
 total energy-change (2. order) :-0.6539281E+01  (-0.2122008E+01)
 number of electron     368.0000001 magnetization 
 augmentation part        1.4931220 magnetization 

 Free energy of the ion-electron system (eV)
  ---------------------------------------------------
  alpha Z        PSCENC =       397.03144280
  Ewald energy   TEWEN  =    -10480.24895922
  -Hartree energ DENC   =     -8179.37278415
  -exchange      EXHF   =         0.00000000
  -V(xc)+E(xc)   XCENC  =      1248.08438037
  PAW double counting   =    193664.45246374  -193546.22214197
  entropy T*S    EENTRO =        -0.00000000
  eigenvalues    EBANDS =     -2941.57442903
  atomic energy  EATOM  =     19143.88231737
  ---------------------------------------------------
  free energy    TOTEN  =      -693.96771009 eV

  energy without entropy =     -693.96771009  energy(sigma->0) =     -693.96771009


--------------------------------------------------------------------------------------------------------




--------------------------------------- Iteration      1(   9)  ---------------------------------------


    POTLOK:  cpu time      0.0492: real time      0.0492
    SETDIJ:  cpu time      0.0033: real time      0.0033
    TRIAL :  cpu time     11.6213: real time     11.6301
    CORREC:  cpu time      4.0460: real time      4.0489
    CHARGE:  cpu time      1.3478: real time      1.3486
    --------------------------------------------
      LOOP:  cpu time     17.0846: real time     17.1099

 eigenvalue-minimisations  :     0
 total energy-change (2. order) :-0.2121433E+01  (-0.5944548E+00)
 number of electron     368.0000001 magnetization 
 augmentation part        1.5070585 magnetization 

 Free energy of the ion-electron system (eV)
  ---------------------------------------------------
  alpha Z        PSCENC =       397.03144280
  Ewald energy   TEWEN  =    -10480.24895922
  -Hartree energ DENC   =     -8171.10698424
  -exchange      EXHF   =         0.00000000
  -V(xc)+E(xc)   XCENC  =      1247.54026254
  PAW double counting   =    193015.70426059  -192897.39257898
  entropy T*S    EENTRO =        -0.00000000
  eigenvalues    EBANDS =     -2951.49890386
  atomic energy  EATOM  =     19143.88231737
  ---------------------------------------------------
  free energy    TOTEN  =      -696.08914300 eV

  energy without entropy =     -696.08914300  energy(sigma->0) =     -696.08914300


--------------------------------------------------------------------------------------------------------




--------------------------------------- Iteration      1(  10)  ---------------------------------------


    POTLOK:  cpu time      0.0492: real time      0.0492
    SETDIJ:  cpu time      0.0032: real time      0.0032
    TRIAL :  cpu time     11.6331: real time     11.6415
    CORREC:  cpu time      4.0432: real time      4.0460
    CHARGE:  cpu time      1.3503: real time      1.3513
    --------------------------------------------
      LOOP:  cpu time     17.1091: real time     17.1216

 eigenvalue-minimisations  :     0
 total energy-change (2. order) :-0.5929432E+00  (-0.1612933E+00)
 number of electron     368.0000001 magnetization 
 augmentation part        1.5240977 magnetization 

 Free energy of the ion-electron system (eV)
  ---------------------------------------------------
  alpha Z        PSCENC =       397.03144280
  Ewald energy   TEWEN  =    -10480.24895922
  -Hartree energ DENC   =     -8141.42791862
  -exchange      EXHF   =         0.00000000
  -V(xc)+E(xc)   XCENC  =      1245.92784367
  PAW double counting   =    190009.90308897  -189891.55606426
  entropy T*S    EENTRO =        -0.00000000
  eigenvalues    EBANDS =     -2980.19383688
  atomic energy  EATOM  =     19143.88231737
  ---------------------------------------------------
  free energy    TOTEN  =      -696.68208617 eV

  energy without entropy =     -696.68208617  energy(sigma->0) =     -696.68208617


--------------------------------------------------------------------------------------------------------




--------------------------------------- Iteration      1(  11)  ---------------------------------------


    POTLOK:  cpu time      0.0493: real time      0.0493
    SETDIJ:  cpu time      0.0031: real time      0.0031
    TRIAL :  cpu time     11.6031: real time     11.6128
    CORREC:  cpu time      4.0401: real time      4.0430
    CHARGE:  cpu time      1.3506: real time      1.3514
    --------------------------------------------
      LOOP:  cpu time     17.0592: real time     17.0895

 eigenvalue-minimisations  :     0
 total energy-change (2. order) :-0.1611984E+00  (-0.3724849E-01)
 number of electron     368.0000001 magnetization 
 augmentation part        1.5196047 magnetization 

 Free energy of the ion-electron system (eV)
  ---------------------------------------------------
  alpha Z        PSCENC =       397.03144280
  Ewald energy   TEWEN  =    -10480.24895922
  -Hartree energ DENC   =     -8142.83372605
  -exchange      EXHF   =         0.00000000
  -V(xc)+E(xc)   XCENC  =      1245.91421013
  PAW double counting   =    188703.02155526  -188584.85185153
  entropy T*S    EENTRO =        -0.00000000
  eigenvalues    EBANDS =     -2978.75827333
  atomic energy  EATOM  =     19143.88231737
  ---------------------------------------------------
  free energy    TOTEN  =      -696.84328457 eV

  energy without entropy =     -696.84328457  energy(sigma->0) =     -696.84328457


--------------------------------------------------------------------------------------------------------




--------------------------------------- Iteration      1(  12)  ---------------------------------------


    POTLOK:  cpu time      0.0492: real time      0.0492
    SETDIJ:  cpu time      0.0032: real time      0.0032
    TRIAL :  cpu time     11.6217: real time     11.6299
    CORREC:  cpu time      4.0453: real time      4.0487
    CHARGE:  cpu time      1.3498: real time      1.3506
    --------------------------------------------
      LOOP:  cpu time     17.0829: real time     17.1116

 eigenvalue-minimisations  :     0
 total energy-change (2. order) :-0.3723144E-01  (-0.9240820E-02)
 number of electron     368.0000001 magnetization 
 augmentation part        1.5162045 magnetization 

 Free energy of the ion-electron system (eV)
  ---------------------------------------------------
  alpha Z        PSCENC =       397.03144280
  Ewald energy   TEWEN  =    -10480.24895922
  -Hartree energ DENC   =     -8139.65275017
  -exchange      EXHF   =         0.00000000
  -V(xc)+E(xc)   XCENC  =      1245.66686449
  PAW double counting   =    189531.07756242  -189412.86922735
  entropy T*S    EENTRO =        -0.00000000
  eigenvalues    EBANDS =     -2981.76776635
  atomic energy  EATOM  =     19143.88231737
  ---------------------------------------------------
  free energy    TOTEN  =      -696.88051601 eV

  energy without entropy =     -696.88051601  energy(sigma->0) =     -696.88051601


--------------------------------------------------------------------------------------------------------




--------------------------------------- Iteration      1(  13)  ---------------------------------------


    POTLOK:  cpu time      0.0491: real time      0.0491
    SETDIJ:  cpu time      0.0032: real time      0.0032
    TRIAL :  cpu time     11.5962: real time     11.6043
    CORREC:  cpu time      4.0478: real time      4.0512
    CHARGE:  cpu time      1.3493: real time      1.3502
    --------------------------------------------
      LOOP:  cpu time     17.0582: real time     17.0878

 eigenvalue-minimisations  :     0
 total energy-change (2. order) :-0.9233407E-02  (-0.2372919E-02)
 number of electron     368.0000001 magnetization 
 augmentation part        1.5165229 magnetization 

 Free energy of the ion-electron system (eV)
  ---------------------------------------------------
  alpha Z        PSCENC =       397.03144280
  Ewald energy   TEWEN  =    -10480.24895922
  -Hartree energ DENC   =     -8139.52092957
  -exchange      EXHF   =         0.00000000
  -V(xc)+E(xc)   XCENC  =      1245.65896910
  PAW double counting   =    189875.15759629  -189756.93412727
  entropy T*S    EENTRO =        -0.00000000
  eigenvalues    EBANDS =     -2981.91605892
  atomic energy  EATOM  =     19143.88231737
  ---------------------------------------------------
  free energy    TOTEN  =      -696.88974942 eV

  energy without entropy =     -696.88974942  energy(sigma->0) =     -696.88974942


--------------------------------------------------------------------------------------------------------




--------------------------------------- Iteration      1(  14)  ---------------------------------------


    POTLOK:  cpu time      0.0492: real time      0.0498
    SETDIJ:  cpu time      0.0032: real time      0.0032
    TRIAL :  cpu time     11.7694: real time     11.7774
    CORREC:  cpu time      4.0518: real time      4.0548
    CHARGE:  cpu time      1.3499: real time      1.3515
    --------------------------------------------
      LOOP:  cpu time     17.2366: real time     17.2680

 eigenvalue-minimisations  :     0
 total energy-change (2. order) :-0.2377838E-02  (-0.6990578E-03)
 number of electron     368.0000001 magnetization 
 augmentation part        1.5170091 magnetization 

 Free energy of the ion-electron system (eV)
  ---------------------------------------------------
  alpha Z        PSCENC =       397.03144280
  Ewald energy   TEWEN  =    -10480.24895922
  -Hartree energ DENC   =     -8138.94828566
  -exchange      EXHF   =         0.00000000
  -V(xc)+E(xc)   XCENC  =      1245.62019997
  PAW double counting   =    189895.37775068  -189777.15157011
  entropy T*S    EENTRO =        -0.00000000
  eigenvalues    EBANDS =     -2982.45502309
  atomic energy  EATOM  =     19143.88231737
  ---------------------------------------------------
  free energy    TOTEN  =      -696.89212726 eV

  energy without entropy =     -696.89212726  energy(sigma->0) =     -696.89212726


--------------------------------------------------------------------------------------------------------




--------------------------------------- Iteration      1(  15)  ---------------------------------------


    POTLOK:  cpu time      0.0490: real time      0.0490
    SETDIJ:  cpu time      0.0032: real time      0.0032
    TRIAL :  cpu time     11.5857: real time     11.5949
    CORREC:  cpu time      4.0447: real time      4.0478
    CHARGE:  cpu time      1.3492: real time      1.3509
    --------------------------------------------
      LOOP:  cpu time     17.0606: real time     17.0748

 eigenvalue-minimisations  :     0
 total energy-change (2. order) :-0.7006421E-03  (-0.2361259E-03)
 number of electron     368.0000001 magnetization 
 augmentation part        1.5169665 magnetization 

 Free energy of the ion-electron system (eV)
  ---------------------------------------------------
  alpha Z        PSCENC =       397.03144280
  Ewald energy   TEWEN  =    -10480.24895922
  -Hartree energ DENC   =     -8139.14407610
  -exchange      EXHF   =         0.00000000
  -V(xc)+E(xc)   XCENC  =      1245.62847529
  PAW double counting   =    189777.59865816  -189659.37702827
  entropy T*S    EENTRO =        -0.00000000
  eigenvalues    EBANDS =     -2982.26365793
  atomic energy  EATOM  =     19143.88231737
  ---------------------------------------------------
  free energy    TOTEN  =      -696.89282790 eV

  energy without entropy =     -696.89282790  energy(sigma->0) =     -696.89282790


--------------------------------------------------------------------------------------------------------




--------------------------------------- Iteration      1(  16)  ---------------------------------------


    POTLOK:  cpu time      0.0489: real time      0.0489
    SETDIJ:  cpu time      0.0032: real time      0.0031
    TRIAL :  cpu time     11.5770: real time     11.5847
    CORREC:  cpu time      4.0510: real time      4.0552
    CHARGE:  cpu time      1.3488: real time      1.3498
    --------------------------------------------
      LOOP:  cpu time     17.0453: real time     17.0714

 eigenvalue-minimisations  :     0
 total energy-change (2. order) :-0.2359638E-03  (-0.8456212E-04)
 number of electron     368.0000001 magnetization 
 augmentation part        1.5165958 magnetization 

 Free energy of the ion-electron system (eV)
  ---------------------------------------------------
  alpha Z        PSCENC =       397.03144280
  Ewald energy   TEWEN  =    -10480.24895922
  -Hartree energ DENC   =     -8139.33267527
  -exchange      EXHF   =         0.00000000
  -V(xc)+E(xc)   XCENC  =      1245.64037169
  PAW double counting   =    189711.59753850  -189593.37746030
  entropy T*S    EENTRO =        -0.00000000
  eigenvalues    EBANDS =     -2982.08563943
  atomic energy  EATOM  =     19143.88231737
  ---------------------------------------------------
  free energy    TOTEN  =      -696.89306386 eV

  energy without entropy =     -696.89306386  energy(sigma->0) =     -696.89306386


--------------------------------------------------------------------------------------------------------




--------------------------------------- Iteration      1(  17)  ---------------------------------------


    POTLOK:  cpu time      0.0489: real time      0.0489
    SETDIJ:  cpu time      0.0032: real time      0.0032
    TRIAL :  cpu time     11.5832: real time     11.5919
    CORREC:  cpu time      4.0472: real time      4.0502
    CHARGE:  cpu time      1.3509: real time      1.3517
    --------------------------------------------
      LOOP:  cpu time     17.0453: real time     17.0761

 eigenvalue-minimisations  :     0
 total energy-change (2. order) :-0.8405457E-04  (-0.2963351E-04)
 number of electron     368.0000001 magnetization 
 augmentation part        1.5163305 magnetization 

 Free energy of the ion-electron system (eV)
  ---------------------------------------------------
  alpha Z        PSCENC =       397.03144280
  Ewald energy   TEWEN  =    -10480.24895922
  -Hartree energ DENC   =     -8139.26007450
  -exchange      EXHF   =         0.00000000
  -V(xc)+E(xc)   XCENC  =      1245.63673261
  PAW double counting   =    189737.52872859  -189619.30550805
  entropy T*S    EENTRO =        -0.00000000
  eigenvalues    EBANDS =     -2982.15782752
  atomic energy  EATOM  =     19143.88231737
  ---------------------------------------------------
  free energy    TOTEN  =      -696.89314792 eV

  energy without entropy =     -696.89314792  energy(sigma->0) =     -696.89314792


--------------------------------------------------------------------------------------------------------




--------------------------------------- Iteration      1(  18)  ---------------------------------------


    POTLOK:  cpu time      0.0526: real time      0.0526
    SETDIJ:  cpu time      0.0034: real time      0.0034
    TRIAL :  cpu time     11.5555: real time     11.5646
    CORREC:  cpu time      4.0559: real time      4.0587
    CHARGE:  cpu time      1.3495: real time      1.3503
    --------------------------------------------
      LOOP:  cpu time     17.0472: real time     17.0601

 eigenvalue-minimisations  :     0
 total energy-change (2. order) :-0.2833336E-04  (-0.8623387E-05)
 number of electron     368.0000001 magnetization 
 augmentation part        1.5162650 magnetization 

 Free energy of the ion-electron system (eV)
  ---------------------------------------------------
  alpha Z        PSCENC =       397.03144280
  Ewald energy   TEWEN  =    -10480.24895922
  -Hartree energ DENC   =     -8139.37029784
  -exchange      EXHF   =         0.00000000
  -V(xc)+E(xc)   XCENC  =      1245.64285304
  PAW double counting   =    189775.92453005  -189657.70009736
  entropy T*S    EENTRO =        -0.00000000
  eigenvalues    EBANDS =     -2982.05496509
  atomic energy  EATOM  =     19143.88231737
  ---------------------------------------------------
  free energy    TOTEN  =      -696.89317625 eV

  energy without entropy =     -696.89317625  energy(sigma->0) =     -696.89317625


--------------------------------------------------------------------------------------------------------




--------------------------------------- Iteration      1(  19)  ---------------------------------------


    POTLOK:  cpu time      0.0489: real time      0.0489
    SETDIJ:  cpu time      0.0033: real time      0.0033
    TRIAL :  cpu time     11.5762: real time     11.5841
    CORREC:  cpu time      4.0888: real time      4.0914
    CHARGE:  cpu time      1.3486: real time      1.3495
    --------------------------------------------
      LOOP:  cpu time     17.0788: real time     17.1072

 eigenvalue-minimisations  :     0
 total energy-change (2. order) :-0.8249859E-05  (-0.2118546E-05)
 number of electron     368.0000001 magnetization 
 augmentation part        1.5162548 magnetization 

 Free energy of the ion-electron system (eV)
  ---------------------------------------------------
  alpha Z        PSCENC =       397.03144280
  Ewald energy   TEWEN  =    -10480.24895922
  -Hartree energ DENC   =     -8139.40097539
  -exchange      EXHF   =         0.00000000
  -V(xc)+E(xc)   XCENC  =      1245.64493045
  PAW double counting   =    189785.83399075  -189667.60959473
  entropy T*S    EENTRO =        -0.00000000
  eigenvalues    EBANDS =     -2982.02633653
  atomic energy  EATOM  =     19143.88231737
  ---------------------------------------------------
  free energy    TOTEN  =      -696.89318450 eV

  energy without entropy =     -696.89318450  energy(sigma->0) =     -696.89318450


--------------------------------------------------------------------------------------------------------




--------------------------------------- Iteration      1(  20)  ---------------------------------------


    POTLOK:  cpu time      0.0493: real time      0.0493
    SETDIJ:  cpu time      0.0032: real time      0.0032
    TRIAL :  cpu time     11.5726: real time     11.5823
    CORREC:  cpu time      4.0921: real time      4.0949
    CHARGE:  cpu time      1.3492: real time      1.3501
    --------------------------------------------
      LOOP:  cpu time     17.0795: real time     17.1107

 eigenvalue-minimisations  :     0
 total energy-change (2. order) :-0.2147368E-05  (-0.6600870E-06)
 number of electron     368.0000001 magnetization 
 augmentation part        1.5162896 magnetization 

 Free energy of the ion-electron system (eV)
  ---------------------------------------------------
  alpha Z        PSCENC =       397.03144280
  Ewald energy   TEWEN  =    -10480.24895922
  -Hartree energ DENC   =     -8139.36506839
  -exchange      EXHF   =         0.00000000
  -V(xc)+E(xc)   XCENC  =      1245.64280739
  PAW double counting   =    189782.47042300  -189664.24583531
  entropy T*S    EENTRO =        -0.00000000
  eigenvalues    EBANDS =     -2982.06031429
  atomic energy  EATOM  =     19143.88231737
  ---------------------------------------------------
  free energy    TOTEN  =      -696.89318665 eV

  energy without entropy =     -696.89318665  energy(sigma->0) =     -696.89318665


--------------------------------------------------------------------------------------------------------




--------------------------------------- Iteration      1(  21)  ---------------------------------------


    POTLOK:  cpu time      0.0488: real time      0.0488
    SETDIJ:  cpu time      0.0032: real time      0.0032
    TRIAL :  cpu time     11.6548: real time     11.6631
    CORREC:  cpu time      4.1505: real time      4.1539
    CHARGE:  cpu time      1.3494: real time      1.3504
    --------------------------------------------
      LOOP:  cpu time     17.2371: real time     17.2499

 eigenvalue-minimisations  :     0
 total energy-change (2. order) :-0.6829505E-06  (-0.2079390E-06)
 number of electron     368.0000001 magnetization 
 augmentation part        1.5163018 magnetization 

 Free energy of the ion-electron system (eV)
  ---------------------------------------------------
  alpha Z        PSCENC =       397.03144280
  Ewald energy   TEWEN  =    -10480.24895922
  -Hartree energ DENC   =     -8139.37009031
  -exchange      EXHF   =         0.00000000
  -V(xc)+E(xc)   XCENC  =      1245.64301087
[...]
   -.559E+02 0.304E+02 0.588E+02   0.624E+02 -.287E+02 -.632E+02   -.651E+01 -.190E+01 0.422E+01
   0.244E+02 0.418E+02 0.118E+02   -.273E+02 -.462E+02 -.134E+02   0.297E+01 0.444E+01 0.162E+01
   -.244E+02 -.418E+02 -.118E+02   0.273E+02 0.462E+02 0.134E+02   -.297E+01 -.444E+01 -.162E+01
   0.244E+02 -.418E+02 0.118E+02   -.273E+02 0.462E+02 -.134E+02   0.297E+01 -.444E+01 0.162E+01
   -.244E+02 0.418E+02 -.118E+02   0.273E+02 -.462E+02 0.134E+02   -.297E+01 0.444E+01 -.162E+01
   -.178E+02 0.199E+02 -.390E+02   0.206E+02 -.218E+02 0.436E+02   -.275E+01 0.187E+01 -.456E+01
   0.178E+02 -.199E+02 0.390E+02   -.205E+02 0.218E+02 -.435E+02   0.274E+01 -.187E+01 0.456E+01
   -.178E+02 -.199E+02 -.390E+02   0.206E+02 0.218E+02 0.435E+02   -.274E+01 -.187E+01 -.456E+01
   0.178E+02 0.199E+02 0.390E+02   -.206E+02 -.218E+02 -.435E+02   0.275E+01 0.187E+01 0.456E+01
   -.383E+02 0.459E+01 0.332E+02   0.427E+02 -.351E+01 -.380E+02   -.434E+01 -.105E+01 0.474E+01
   0.383E+02 -.459E+01 -.332E+02   -.427E+02 0.352E+01 0.380E+02   0.434E+01 0.105E+01 -.474E+01
   -.383E+02 -.459E+01 0.332E+02   0.427E+02 0.352E+01 -.380E+02   -.434E+01 0.105E+01 0.474E+01
   0.383E+02 0.459E+01 -.332E+02   -.427E+02 -.351E+01 0.380E+02   0.434E+01 -.105E+01 -.475E+01
   0.244E+02 0.418E+02 0.118E+02   -.273E+02 -.462E+02 -.134E+02   0.297E+01 0.444E+01 0.162E+01
   -.244E+02 -.418E+02 -.118E+02   0.273E+02 0.462E+02 0.134E+02   -.297E+01 -.444E+01 -.162E+01
   0.244E+02 -.418E+02 0.118E+02   -.273E+02 0.462E+02 -.134E+02   0.297E+01 -.444E+01 0.162E+01
   -.244E+02 0.418E+02 -.118E+02   0.273E+02 -.462E+02 0.134E+02   -.297E+01 0.444E+01 -.162E+01
   -.178E+02 0.199E+02 -.390E+02   0.206E+02 -.218E+02 0.436E+02   -.275E+01 0.187E+01 -.456E+01
   0.178E+02 -.199E+02 0.390E+02   -.205E+02 0.218E+02 -.435E+02   0.274E+01 -.187E+01 0.456E+01
   -.178E+02 -.199E+02 -.390E+02   0.206E+02 0.218E+02 0.435E+02   -.274E+01 -.187E+01 -.456E+01
   0.178E+02 0.199E+02 0.390E+02   -.206E+02 -.218E+02 -.435E+02   0.275E+01 0.187E+01 0.456E+01
   -.383E+02 0.459E+01 0.332E+02   0.427E+02 -.351E+01 -.380E+02   -.434E+01 -.105E+01 0.474E+01
   0.383E+02 -.459E+01 -.332E+02   -.427E+02 0.352E+01 0.380E+02   0.434E+01 0.105E+01 -.474E+01
   -.383E+02 -.459E+01 0.332E+02   0.427E+02 0.352E+01 -.380E+02   -.434E+01 0.105E+01 0.474E+01
   0.383E+02 0.459E+01 -.332E+02   -.427E+02 -.351E+01 0.380E+02   0.434E+01 -.105E+01 -.475E+01
   0.244E+02 0.418E+02 0.118E+02   -.273E+02 -.462E+02 -.134E+02   0.297E+01 0.444E+01 0.162E+01
   -.244E+02 -.418E+02 -.118E+02   0.273E+02 0.462E+02 0.134E+02   -.297E+01 -.444E+01 -.162E+01
   0.244E+02 -.418E+02 0.118E+02   -.273E+02 0.462E+02 -.134E+02   0.297E+01 -.444E+01 0.162E+01
   -.244E+02 0.418E+02 -.118E+02   0.273E+02 -.462E+02 0.134E+02   -.297E+01 0.444E+01 -.162E+01
   -.178E+02 0.199E+02 -.390E+02   0.206E+02 -.218E+02 0.436E+02   -.275E+01 0.187E+01 -.456E+01
   0.178E+02 -.199E+02 0.390E+02   -.205E+02 0.218E+02 -.435E+02   0.274E+01 -.187E+01 0.456E+01
   -.178E+02 -.199E+02 -.390E+02   0.206E+02 0.218E+02 0.435E+02   -.274E+01 -.187E+01 -.456E+01
   0.178E+02 0.199E+02 0.390E+02   -.206E+02 -.218E+02 -.435E+02   0.275E+01 0.187E+01 0.456E+01
   -.383E+02 0.459E+01 0.332E+02   0.427E+02 -.351E+01 -.380E+02   -.434E+01 -.105E+01 0.474E+01
   0.383E+02 -.459E+01 -.332E+02   -.427E+02 0.352E+01 0.380E+02   0.434E+01 0.105E+01 -.474E+01
   -.383E+02 -.459E+01 0.332E+02   0.427E+02 0.352E+01 -.380E+02   -.434E+01 0.105E+01 0.474E+01
   0.383E+02 0.459E+01 -.332E+02   -.427E+02 -.351E+01 0.380E+02   0.434E+01 -.105E+01 -.475E+01
   0.244E+02 0.418E+02 0.118E+02   -.273E+02 -.462E+02 -.134E+02   0.297E+01 0.444E+01 0.162E+01
   -.244E+02 -.418E+02 -.118E+02   0.273E+02 0.462E+02 0.134E+02   -.297E+01 -.444E+01 -.162E+01
   0.244E+02 -.418E+02 0.118E+02   -.273E+02 0.462E+02 -.134E+02   0.297E+01 -.444E+01 0.162E+01
   -.244E+02 0.418E+02 -.118E+02   0.273E+02 -.462E+02 0.134E+02   -.297E+01 0.444E+01 -.162E+01
   -.178E+02 0.199E+02 -.390E+02   0.206E+02 -.218E+02 0.436E+02   -.275E+01 0.187E+01 -.456E+01
   0.178E+02 -.199E+02 0.390E+02   -.205E+02 0.218E+02 -.435E+02   0.274E+01 -.187E+01 0.456E+01
   -.178E+02 -.199E+02 -.390E+02   0.206E+02 0.218E+02 0.435E+02   -.274E+01 -.187E+01 -.456E+01
   0.178E+02 0.199E+02 0.390E+02   -.206E+02 -.218E+02 -.435E+02   0.275E+01 0.187E+01 0.456E+01
   -.383E+02 0.459E+01 0.332E+02   0.427E+02 -.351E+01 -.380E+02   -.434E+01 -.105E+01 0.474E+01
   0.383E+02 -.459E+01 -.332E+02   -.427E+02 0.352E+01 0.380E+02   0.434E+01 0.105E+01 -.474E+01
   -.383E+02 -.459E+01 0.332E+02   0.427E+02 0.352E+01 -.380E+02   -.434E+01 0.105E+01 0.474E+01
   0.383E+02 0.459E+01 -.332E+02   -.427E+02 -.351E+01 0.380E+02   0.434E+01 -.105E+01 -.475E+01
   0.567E+02 -.182E+03 0.937E+02   -.646E+02 0.223E+03 -.117E+03   0.795E+01 -.404E+02 0.239E+02
   -.566E+02 0.182E+03 -.936E+02   0.646E+02 -.223E+03 0.117E+03   -.795E+01 0.404E+02 -.239E+02
   0.567E+02 0.182E+03 0.936E+02   -.646E+02 -.223E+03 -.117E+03   0.794E+01 0.404E+02 0.239E+02
   -.567E+02 -.182E+03 -.937E+02   0.646E+02 0.223E+03 0.117E+03   -.795E+01 -.404E+02 -.239E+02
   -.822E+02 0.156E+03 -.342E+02   0.922E+02 -.195E+03 0.560E+02   -.102E+02 0.390E+02 -.218E+02
   0.822E+02 -.156E+03 0.342E+02   -.922E+02 0.195E+03 -.560E+02   0.102E+02 -.390E+02 0.218E+02
   -.822E+02 -.156E+03 -.342E+02   0.922E+02 0.195E+03 0.560E+02   -.102E+02 -.390E+02 -.218E+02
   0.822E+02 0.156E+03 0.342E+02   -.922E+02 -.195E+03 -.561E+02   0.102E+02 0.390E+02 0.218E+02
   0.567E+02 -.182E+03 0.937E+02   -.646E+02 0.223E+03 -.117E+03   0.795E+01 -.404E+02 0.239E+02
   -.566E+02 0.182E+03 -.936E+02   0.646E+02 -.223E+03 0.117E+03   -.795E+01 0.404E+02 -.239E+02
   0.567E+02 0.182E+03 0.936E+02   -.646E+02 -.223E+03 -.117E+03   0.794E+01 0.404E+02 0.239E+02
   -.567E+02 -.182E+03 -.937E+02   0.646E+02 0.223E+03 0.117E+03   -.795E+01 -.404E+02 -.239E+02
   -.822E+02 0.156E+03 -.342E+02   0.922E+02 -.195E+03 0.560E+02   -.102E+02 0.390E+02 -.218E+02
   0.822E+02 -.156E+03 0.342E+02   -.922E+02 0.195E+03 -.560E+02   0.102E+02 -.390E+02 0.218E+02
   -.822E+02 -.156E+03 -.342E+02   0.922E+02 0.195E+03 0.560E+02   -.102E+02 -.390E+02 -.218E+02
   0.822E+02 0.156E+03 0.342E+02   -.922E+02 -.195E+03 -.561E+02   0.102E+02 0.390E+02 0.218E+02
   0.567E+02 -.182E+03 0.937E+02   -.646E+02 0.223E+03 -.117E+03   0.795E+01 -.404E+02 0.239E+02
   -.566E+02 0.182E+03 -.936E+02   0.646E+02 -.223E+03 0.117E+03   -.795E+01 0.404E+02 -.239E+02
   0.567E+02 0.182E+03 0.936E+02   -.646E+02 -.223E+03 -.117E+03   0.794E+01 0.404E+02 0.239E+02
   -.567E+02 -.182E+03 -.937E+02   0.646E+02 0.223E+03 0.117E+03   -.795E+01 -.404E+02 -.239E+02
   -.822E+02 0.156E+03 -.342E+02   0.922E+02 -.195E+03 0.560E+02   -.102E+02 0.390E+02 -.218E+02
   0.822E+02 -.156E+03 0.342E+02   -.922E+02 0.195E+03 -.560E+02   0.102E+02 -.390E+02 0.218E+02
   -.822E+02 -.156E+03 -.342E+02   0.922E+02 0.195E+03 0.560E+02   -.102E+02 -.390E+02 -.218E+02
   0.822E+02 0.156E+03 0.342E+02   -.922E+02 -.195E+03 -.561E+02   0.102E+02 0.390E+02 0.218E+02
   0.567E+02 -.182E+03 0.937E+02   -.646E+02 0.223E+03 -.117E+03   0.795E+01 -.404E+02 0.239E+02
   -.566E+02 0.182E+03 -.936E+02   0.646E+02 -.223E+03 0.117E+03   -.795E+01 0.404E+02 -.239E+02
   0.567E+02 0.182E+03 0.936E+02   -.646E+02 -.223E+03 -.117E+03   0.794E+01 0.404E+02 0.239E+02
   -.567E+02 -.182E+03 -.937E+02   0.646E+02 0.223E+03 0.117E+03   -.795E+01 -.404E+02 -.239E+02
   -.822E+02 0.156E+03 -.342E+02   0.922E+02 -.195E+03 0.560E+02   -.102E+02 0.390E+02 -.218E+02
   0.822E+02 -.156E+03 0.342E+02   -.922E+02 0.195E+03 -.560E+02   0.102E+02 -.390E+02 0.218E+02
   -.822E+02 -.156E+03 -.342E+02   0.922E+02 0.195E+03 0.560E+02   -.102E+02 -.390E+02 -.218E+02
   0.822E+02 0.156E+03 0.342E+02   -.922E+02 -.195E+03 -.561E+02   0.102E+02 0.390E+02 0.218E+02
 -----------------------------------------------------------------------------------------------
   0.280E-01 -.439E-01 0.146E-02   0.313E-12 0.853E-13 -.611E-12   -.280E-01 0.439E-01 -.146E-02


 POSITION                                       TOTAL-FORCE (eV/Angst)
 -----------------------------------------------------------------------------------
      0.30812      8.14947      4.94732         0.003159      0.116092     -0.054128
      5.01172      0.59067      0.15192        -0.004642     -0.114747      0.053923
      0.38112      4.96077      2.39452         0.005579     -0.111915     -0.055430
      4.93862      3.77937      2.70482        -0.005827      0.115990      0.053262
      1.32352      8.44677      3.87142        -0.077902      0.002980      0.070266
      3.99632      0.29347      1.22782         0.076357     -0.008484     -0.067629
      1.39652      4.66357      1.31852        -0.076465     -0.005138      0.072084
      3.92322      4.07667      3.78072         0.075810      0.001034     -0.070559
      0.16197      8.14947     10.05301         0.003159      0.116092     -0.054128
      4.86557      0.59067      5.25761        -0.004642     -0.114747      0.053923
      0.23497      4.96077      7.50021         0.005579     -0.111915     -0.055430
      4.79247      3.77937      7.81051        -0.005827      0.115990      0.053262
      1.17737      8.44677      8.97711        -0.077902      0.002980      0.070266
      3.85017      0.29347      6.33351         0.076357     -0.008484     -0.067629
      1.25037      4.66357      6.42421        -0.076465     -0.005138      0.072084
      3.77707      4.07667      8.88641         0.075810      0.001034     -0.070559
      5.77401      8.14947      4.94085         0.003159      0.116092     -0.054128
     10.47761      0.59067      0.14545        -0.004642     -0.114747      0.053923
      5.84701      4.96077      2.38805         0.005579     -0.111915     -0.055430
     10.40451      3.77937      2.69835        -0.005827      0.115990      0.053262
      6.78941      8.44677      3.86495        -0.077902      0.002980      0.070266
      9.46221      0.29347      1.22135         0.076357     -0.008484     -0.067629
      6.86241      4.66357      1.31205        -0.076465     -0.005138      0.072084
      9.38911      4.07667      3.77425         0.075810      0.001034     -0.070559
      5.62786      8.14947     10.04655         0.003159      0.116092     -0.054128
     10.33146      0.59067      5.25115        -0.004642     -0.114747      0.053923
      5.70086      4.96077      7.49375         0.005579     -0.111915     -0.055430
     10.25836      3.77937      7.80405        -0.005827      0.115990      0.053262
      6.64326      8.44677      8.97065        -0.077902      0.002980      0.070266
      9.31606      0.29347      6.32705         0.076357     -0.008484     -0.067629
      6.71626      4.66357      6.41775        -0.076465     -0.005138      0.072084
      9.24296      4.07667      8.87995         0.075810      0.001034     -0.070559
      5.18882      7.27717      4.60382         0.009125      0.031068     -0.005006
      0.13092      1.46297      0.49552        -0.008043     -0.030512      0.004733
      5.26192      5.83317      2.05092         0.009100     -0.032561     -0.003930
      0.05782      2.90707      3.04832        -0.007894      0.029908      0.005338
      0.99922      7.80177      0.72892        -0.013517      0.018239     -0.000852
      4.32062      0.93847      4.37032         0.014041     -0.018764      0.001484
      0.92612      5.30857      3.28182        -0.014304     -0.019062     -0.002317
      4.39362      3.43167      1.81752         0.013920      0.018452      0.001432
      2.91772      7.72997      3.02562         0.066039      0.004997     -0.064280
      2.40202      1.01017      2.07372        -0.064626     -0.004917      0.062678
      2.99082      5.38027      0.47272         0.065593     -0.005204     -0.063963
      2.32902      3.35987      4.62652        -0.066950      0.005292      0.065201
      5.04267      7.27717      9.70951         0.009125      0.031068     -0.005006
     -0.01523      1.46297      5.60121        -0.008043     -0.030512      0.004733
      5.11577      5.83317      7.15661         0.009100     -0.032561     -0.003930
     -0.08833      2.90707      8.15401        -0.007894      0.029908      0.005338
      0.85307      7.80177      5.83461        -0.013517      0.018239     -0.000852
      4.17447      0.93847      9.47601         0.014041     -0.018764      0.001484
      0.77997      5.30857      8.38751        -0.014304     -0.019062     -0.002317
      4.24747      3.43167      6.92321         0.013920      0.018452      0.001432
      2.77157      7.72997      8.13131         0.066039      0.004997     -0.064280
      2.25587      1.01017      7.17941        -0.064626     -0.004917      0.062678
      2.84467      5.38027      5.57841         0.065593     -0.005204     -0.063963
      2.18287      3.35987      9.73221        -0.066950      0.005292      0.065201
     10.65471      7.27717      4.59735         0.009125      0.031068     -0.005006
      5.59681      1.46297      0.48905        -0.008043     -0.030512      0.004733
     10.72781      5.83317      2.04445         0.009100     -0.032561     -0.003930
      5.52371      2.90707      3.04185        -0.007894      0.029908      0.005338
      6.46511      7.80177      0.72245        -0.013517      0.018239     -0.000852
      9.78651      0.93847      4.36385         0.014041     -0.018764      0.001484
      6.39201      5.30857      3.27535        -0.014304     -0.019062     -0.002317
      9.85951      3.43167      1.81105         0.013920      0.018452      0.001432
      8.38361      7.72997      3.01915         0.066039      0.004997     -0.064280
      7.86791      1.01017      2.06725        -0.064626     -0.004917      0.062678
      8.45671      5.38027      0.46625         0.065593     -0.005204     -0.063963
      7.79491      3.35987      4.62005        -0.066950      0.005292      0.065201
     10.50856      7.27717      9.70305         0.009125      0.031068     -0.005006
      5.45066      1.46297      5.59475        -0.008043     -0.030512      0.004733
     10.58166      5.83317      7.15015         0.009100     -0.032561     -0.003930
      5.37756      2.90707      8.14755        -0.007894      0.029908      0.005338
      6.31896      7.80177      5.82815        -0.013517      0.018239     -0.000852
      9.64036      0.93847      9.46955         0.014041     -0.018764      0.001484
      6.24586      5.30857      8.38105        -0.014304     -0.019062     -0.002317
      9.71336      3.43167      6.91675         0.013920      0.018452      0.001432
      8.23746      7.72997      8.12485         0.066039      0.004997     -0.064280
      7.72176      1.01017      7.17295        -0.064626     -0.004917      0.062678
      8.31056      5.38027      5.57195         0.065593     -0.005204     -0.063963
      7.64876      3.35987      9.72575        -0.066950      0.005292      0.065201
      1.27952      0.70907      3.14442        -0.072728     -0.007210      0.062189
      4.04032      8.03107      1.95482         0.072700      0.011434     -0.064430
      1.35262      3.66097      0.59162        -0.074041      0.007295      0.061814
      3.96722      5.07917      4.50772         0.073094     -0.006521     -0.061745
      2.25882      7.51927      3.77842        -0.093720     -0.050114      0.119826
      3.06092      1.22087      1.32082         0.093796      0.049955     -0.118794
      2.33192      5.59097      1.22552        -0.094871      0.051468      0.120582
      2.98782      3.14917      3.87372         0.097216     -0.049054     -0.121749
      1.13337      0.70907      8.25011        -0.072728     -0.007210      0.062189
      3.89417      8.03107      7.06051         0.072700      0.011434     -0.064430
      1.20647      3.66097      5.69731        -0.074041      0.007295      0.061814
      3.82107      5.07917      9.61341         0.073094     -0.006521     -0.061745
      2.11267      7.51927      8.88411        -0.093720     -0.050114      0.119826
      2.91477      1.22087      6.42651         0.093796      0.049955     -0.118794
      2.18577      5.59097      6.33121        -0.094871      0.051468      0.120582
      2.84167      3.14917      8.97941         0.097216     -0.049054     -0.121749
      6.74541      0.70907      3.13795        -0.072728     -0.007210      0.062189
      9.50621      8.03107      1.94835         0.072700      0.011434     -0.064430
      6.81851      3.66097      0.58515        -0.074041      0.007295      0.061814
      9.43311      5.07917      4.50125         0.073094     -0.006521     -0.061745
      7.72471      7.51927      3.77195        -0.093720     -0.050114      0.119826
      8.52681      1.22087      1.31435         0.093796      0.049955     -0.118794
      7.79781      5.59097      1.21905        -0.094871      0.051468      0.120582
      8.45371      3.14917      3.86725         0.097216     -0.049054     -0.121749
      6.59926      0.70907      8.24365        -0.072728     -0.007210      0.062189
      9.36006      8.03107      7.05405         0.072700      0.011434     -0.064430
      6.67236      3.66097      5.69085        -0.074041      0.007295      0.061814
      9.28696      5.07917      9.60695         0.073094     -0.006521     -0.061745
      7.57856      7.51927      8.87765        -0.093720     -0.050114      0.119826
      8.38066      1.22087      6.42005         0.093796      0.049955     -0.118794
      7.65166      5.59097      6.32475        -0.094871      0.051468      0.120582
      8.30756      3.14917      8.97295         0.097216     -0.049054     -0.121749
 -----------------------------------------------------------------------------------
    total drift:                               -0.000017      0.000003     -0.000004


--------------------------------------------------------------------------------------------------------



  FREE ENERGIE OF THE ION-ELECTRON SYSTEM (eV)
  ---------------------------------------------------
  free  energy   TOTEN  =      -703.71898142 eV

  energy  without entropy=     -703.71898142  energy(sigma->0) =     -703.71898142



--------------------------------------------------------------------------------------------------------


    POTLOK:  cpu time      0.0608: real time      0.0608


--------------------------------------------------------------------------------------------------------


 stress matrix after NEB project (eV)
     -7.26989     -0.00001     -1.35274
     -0.00001     -7.57909     -0.00000
     -1.35274     -0.00000     -7.52046
  FORCES: max atom, RMS     0.163340    0.101639
  FORCE total and by dimension    1.075646    0.121749
  Stress total and by dimension   13.057987    7.579087
     LOOP+:  cpu time    600.0141: real time    600.6785
    4ORBIT:  cpu time      0.0000: real time      0.0000

 total amount of memory used by VASP MPI-rank0   280305. kBytes
=======================================================================

   base      :      30000. kBytes
   nonl-proj :     157696. kBytes
   fftplans  :      18694. kBytes
   grid      :      25920. kBytes
   one-center:        172. kBytes
   wavefun   :      47823. kBytes

  
  
 General timing and accounting informations for this job:
 ========================================================
  
                  Total CPU time used (sec):      661.021
                            User time (sec):      657.683
                          System time (sec):        3.338
                         Elapsed time (sec):      665.339
  
                   Maximum memory used (kb):      739060.
                   Average memory used (kb):          N/A
  
                          Minor page faults:        71126
                          Major page faults:         1172
                 Voluntary context switches:         6047
