       N       E                     dE             d eps       ncg     rms          ort
DAV:   1     0.287332743478E+03    0.28733E+03   -0.16259E+04   512   0.801E+01
DAV:   2    -0.568047463937E+02   -0.34414E+03   -0.34374E+03   512   0.650E+00
DAV:   3    -0.580331340371E+02   -0.12284E+01   -0.12284E+01   512   0.126E+00
DAV:   4    -0.580381196981E+02   -0.49857E-02   -0.49857E-02   512   0.856E-02
DAV:   5    -0.580381198012E+02   -0.10307E-06   -0.12628E-06   512   0.445E-04
SDA:   6    -0.467742275515E+02    0.11264E+02   -0.12628E-06   512   0.233E+02 0.000E+00
CGA:   7    -0.512193107178E+02   -0.44451E+01   -0.44441E+01   512   0.221E+01 0.219E+00
CGA:   8    -0.519464895400E+02   -0.72718E+00   -0.72601E+00   512   0.124E+01-0.178E-01
CGA:   9    -0.522859001915E+02   -0.33941E+00   -0.34293E+00   512   0.432E+00-0.367E-01
CGA:  10    -0.523990076195E+02   -0.11311E+00   -0.11364E+00   512   0.119E+00-0.575E-02
CGA:  11    -0.524303228475E+02   -0.31315E-01   -0.31318E-01   512   0.300E-01 0.151E-04
CGA:  12    -0.524392335272E+02   -0.89107E-02   -0.89087E-02   512   0.893E-02 0.183E-04
CGA:  13    -0.524421442969E+02   -0.29108E-02   -0.29112E-02   512   0.279E-02-0.573E-05
CGA:  14    -0.524431027357E+02   -0.95844E-03   -0.95994E-03   512   0.876E-03-0.155E-04
CGA:  15    -0.524433982791E+02   -0.29554E-03   -0.29615E-03   512   0.237E-03-0.560E-05
CGA:  16    -0.524434786852E+02   -0.80406E-04   -0.80389E-04   512   0.603E-04 0.447E-08
CGA:  17    -0.524434998447E+02   -0.21159E-04   -0.21018E-04   512   0.158E-04 0.128E-05
CGA:  18    -0.524435057846E+02   -0.59399E-05   -0.58372E-05   512   0.453E-05 0.876E-06
CGA:  19    -0.524435075709E+02   -0.17863E-05   -0.17402E-05   512   0.130E-05 0.397E-06
CGA:  20    -0.524435081166E+02   -0.54577E-06   -0.53351E-06   512   0.361E-06 0.873E-07
CGA:  21    -0.524435082722E+02   -0.15560E-06   -0.15354E-06   512   0.101E-06 0.147E-08
CGA:  22    -0.524435083123E+02   -0.40029E-07   -0.37162E-07   512   0.297E-07 0.119E-07
CGA:  23    -0.524435083233E+02   -0.11054E-07   -0.95959E-08   512   0.110E-07 0.109E-07
CGA:  24    -0.524435083274E+02   -0.41000E-08   -0.33889E-08   512   0.491E-08 0.691E-08
   1 F= -.52443508E+02 E0= -.52443508E+02  d E =-.632506E-63
 Found    27 degrees of freedom:
       N       E                     dE             d eps       ncg     rms          ort
SDA:   1    -0.524137293363E+02    0.29779E-01    0.00000E+00   512   0.502E-01 0.000E+00
CGA:   2    -0.524360536059E+02   -0.22324E-01   -0.22322E-01   512   0.222E-01-0.411E-05
CGA:   3    -0.524407537669E+02   -0.47002E-02   -0.47001E-02   512   0.297E-02 0.339E-07
CGA:   4    -0.524414083846E+02   -0.65462E-03   -0.65472E-03   512   0.641E-03 0.645E-06
CGA:   5    -0.524415628571E+02   -0.15447E-03   -0.15448E-03   512   0.166E-03-0.673E-07
CGA:   6    -0.524416110476E+02   -0.48190E-04   -0.48181E-04   512   0.551E-04 0.308E-06
CGA:   7    -0.524416283815E+02   -0.17334E-04   -0.17323E-04   512   0.202E-04 0.198E-06
CGA:   8    -0.524416352558E+02   -0.68743E-05   -0.68748E-05   512   0.729E-05-0.401E-07
CGA:   9    -0.524416378920E+02   -0.26362E-05   -0.26386E-05   512   0.260E-05-0.495E-07
CGA:  10    -0.524416388802E+02   -0.98826E-06   -0.98671E-06   512   0.924E-06-0.129E-08
CGA:  11    -0.524416392473E+02   -0.36702E-06   -0.36525E-06   512   0.321E-06 0.686E-09
CGA:  12    -0.524416393695E+02   -0.12223E-06   -0.11929E-06   512   0.925E-07 0.172E-07
CGA:  13    -0.524416394068E+02   -0.37315E-07   -0.35189E-07   512   0.255E-07 0.104E-07
CGA:  14    -0.524416394175E+02   -0.10703E-07   -0.92081E-08   512   0.712E-08 0.664E-08
CGA:  15    -0.524416394206E+02   -0.31068E-08   -0.22830E-08   512   0.263E-08 0.384E-08
   2 F= -.52441639E+02 E0= -.52441639E+02  d E =-.364618E-21
       N       E                     dE             d eps       ncg     rms          ort
SDA:   1    -0.523294874079E+02    0.11215E+00    0.00000E+00   512   0.203E+00 0.000E+00
CGA:   2    -0.524190991549E+02   -0.89612E-01   -0.89657E-01   512   0.895E-01-0.276E-03
CGA:   3    -0.524381326407E+02   -0.19033E-01   -0.19035E-01   512   0.120E-01-0.609E-05
CGA:   4    -0.524407707804E+02   -0.26381E-02   -0.26384E-02   512   0.255E-02-0.703E-06
CGA:   5    -0.524413829889E+02   -0.61221E-03   -0.61230E-03   512   0.643E-03 0.685E-06
CGA:   6    -0.524415700655E+02   -0.18708E-03   -0.18708E-03   512   0.212E-03-0.150E-06
CGA:   7    -0.524416375552E+02   -0.67490E-04   -0.67490E-04   512   0.798E-04-0.145E-06
CGA:   8    -0.524416647730E+02   -0.27218E-04   -0.27205E-04   512   0.293E-04 0.168E-06
CGA:   9    -0.524416754416E+02   -0.10669E-04   -0.10658E-04   512   0.105E-04 0.111E-06
CGA:  10    -0.524416794983E+02   -0.40567E-05   -0.40529E-05   512   0.376E-05 0.189E-07
CGA:  11    -0.524416809667E+02   -0.14683E-05   -0.14641E-05   512   0.126E-05 0.257E-07
CGA:  12    -0.524416814684E+02   -0.50176E-06   -0.50136E-06   512   0.394E-06-0.155E-07
CGA:  13    -0.524416816237E+02   -0.15529E-06   -0.15399E-06   512   0.112E-06-0.477E-08
CGA:  14    -0.524416816706E+02   -0.46834E-07   -0.45209E-07   512   0.328E-07-0.102E-08
CGA:  15    -0.524416816849E+02   -0.14361E-07   -0.12518E-07   512   0.915E-08 0.285E-08
CGA:  16    -0.524416816892E+02   -0.42528E-08   -0.30350E-08   512   0.310E-08 0.326E-08
   3 F= -.52441682E+02 E0= -.52441682E+02  d E =-.256338E-26
       N       E                     dE             d eps       ncg     rms          ort
SDA:   1    -0.523825833680E+02    0.59098E-01    0.00000E+00   512   0.108E+00 0.000E+00
CGA:   2    -0.524296063781E+02   -0.47023E-01   -0.47023E-01   512   0.428E-01-0.252E-04
CGA:   3    -0.524393634101E+02   -0.97570E-02   -0.97542E-02   512   0.695E-02 0.137E-05
CGA:   4    -0.524408081600E+02   -0.14447E-02   -0.14450E-02   512   0.137E-02-0.519E-07
CGA:   5    -0.524411258453E+02   -0.31769E-03   -0.31770E-03   512   0.311E-03-0.626E-06
CGA:   6    -0.524412117555E+02   -0.85910E-04   -0.85937E-04   512   0.934E-04 0.868E-06
CGA:   7    -0.524412402555E+02   -0.28500E-04   -0.28499E-04   512   0.309E-04 0.486E-06
CGA:   8    -0.524412506184E+02   -0.10363E-04   -0.10363E-04   512   0.101E-04-0.773E-07
CGA:   9    -0.524412541656E+02   -0.35472E-05   -0.35475E-05   512   0.321E-05-0.415E-07
CGA:  10    -0.524412553445E+02   -0.11789E-05   -0.11770E-05   512   0.106E-05 0.696E-08
CGA:  11    -0.524412557693E+02   -0.42484E-06   -0.42382E-06   512   0.399E-06-0.595E-08
CGA:  12    -0.524412559302E+02   -0.16091E-06   -0.15708E-06   512   0.138E-06 0.292E-07
CGA:  13    -0.524412559911E+02   -0.60849E-07   -0.57948E-07   512   0.464E-07 0.203E-07
CGA:  14    -0.524412560146E+02   -0.23494E-07   -0.21585E-07   512   0.153E-07 0.503E-08
CGA:  15    -0.524412560209E+02   -0.63756E-08   -0.53227E-08   512   0.403E-08 0.462E-08
   4 F= -.52441256E+02 E0= -.52441256E+02  d E =-.179299E-17
       N       E                     dE             d eps       ncg     rms          ort
SDA:   1    -0.523245005027E+02    0.11676E+00    0.00000E+00   512   0.215E+00 0.000E+00
CGA:   2    -0.524172733137E+02   -0.92773E-01   -0.92808E-01   512   0.886E-01-0.263E-03
CGA:   3    -0.524373991248E+02   -0.20126E-01   -0.20134E-01   512   0.139E-01-0.717E-05
CGA:   4    -0.524403227390E+02   -0.29236E-02   -0.29240E-02   512   0.279E-02-0.896E-06
CGA:   5    -0.524409759091E+02   -0.65317E-03   -0.65335E-03   512   0.653E-03 0.986E-06
CGA:   6    -0.524411614757E+02   -0.18557E-03   -0.18555E-03   512   0.205E-03-0.748E-06
CGA:   7    -0.524412252501E+02   -0.63774E-04   -0.63772E-04   512   0.705E-04-0.322E-06
CGA:   8    -0.524412488350E+02   -0.23585E-04   -0.23575E-04   512   0.233E-04 0.301E-06
CGA:   9    -0.524412571059E+02   -0.82709E-05   -0.82619E-05   512   0.763E-05 0.175E-06
CGA:  10    -0.524412599841E+02   -0.28782E-05   -0.28725E-05   512   0.261E-05 0.620E-07
CGA:  11    -0.524412610308E+02   -0.10468E-05   -0.10408E-05   512   0.952E-06 0.528E-07
CGA:  12    -0.524412614530E+02   -0.42218E-06   -0.42253E-06   512   0.379E-06-0.202E-07
CGA:  13    -0.524412616162E+02   -0.16315E-06   -0.16313E-06   512   0.130E-06-0.170E-07
CGA:  14    -0.524412616682E+02   -0.52014E-07   -0.50281E-07   512   0.360E-07 0.192E-09
CGA:  15    -0.524412616841E+02   -0.15934E-07   -0.14203E-07   512   0.101E-07 0.118E-08
CGA:  16    -0.524412616881E+02   -0.40309E-08   -0.30215E-08   512   0.296E-08 0.334E-08
   5 F= -.52441262E+02 E0= -.52441262E+02  d E =-.459315E-12
       N       E                     dE             d eps       ncg     rms          ort
SDA:   1    -0.523888760975E+02    0.52386E-01    0.00000E+00   512   0.985E-01 0.000E+00
CGA:   2    -0.524332662432E+02   -0.44390E-01   -0.44393E-01   512   0.356E-01-0.360E-04
CGA:   3    -0.524412915193E+02   -0.80253E-02   -0.80234E-02   512   0.602E-02 0.387E-05
CGA:   4    -0.524425456448E+02   -0.12541E-02   -0.12544E-02   512   0.123E-02-0.240E-06
CGA:   5    -0.524428375085E+02   -0.29186E-03   -0.29189E-03   512   0.299E-03-0.443E-06
CGA:   6    -0.524429207917E+02   -0.83283E-04   -0.83313E-04   512   0.915E-04 0.675E-06
CGA:   7    -0.524429491165E+02   -0.28325E-04   -0.28326E-04   512   0.305E-04 0.299E-06
CGA:   8    -0.524429591988E+02   -0.10082E-04   -0.10082E-04   512   0.967E-05-0.107E-06
CGA:   9    -0.524429625269E+02   -0.33281E-05   -0.33270E-05   512   0.297E-05-0.193E-07
CGA:  10    -0.524429636277E+02   -0.11008E-05   -0.10986E-05   512   0.103E-05 0.109E-07
CGA:  11    -0.524429640595E+02   -0.43178E-06   -0.43031E-06   512   0.426E-06-0.260E-08
CGA:  12    -0.524429642351E+02   -0.17561E-06   -0.17181E-06   512   0.151E-06 0.276E-07
CGA:  13    -0.524429642999E+02   -0.64849E-07   -0.62396E-07   512   0.476E-07 0.162E-07
CGA:  14    -0.524429643225E+02   -0.22545E-07   -0.20752E-07   512   0.143E-07 0.424E-08
CGA:  15    -0.524429643283E+02   -0.58535E-08   -0.47868E-08   512   0.382E-08 0.428E-08
   6 F= -.52442964E+02 E0= -.52442964E+02  d E =-.881052E-18
       N       E                     dE             d eps       ncg     rms          ort
SDA:   1    -0.523426431989E+02    0.10032E+00    0.00000E+00   512   0.181E+00 0.000E+00
CGA:   2    -0.524271973778E+02   -0.84554E-01   -0.84648E-01   512   0.554E-01-0.547E-03
CGA:   3    -0.524401523260E+02   -0.12955E-01   -0.12955E-01   512   0.103E-01-0.737E-05
CGA:   4    -0.524421872002E+02   -0.20349E-02   -0.20350E-02   512   0.224E-02-0.814E-06
CGA:   5    -0.524427339875E+02   -0.54679E-03   -0.54684E-03   512   0.537E-03-0.130E-06
CGA:   6    -0.524428846061E+02   -0.15062E-03   -0.15062E-03   512   0.174E-03-0.444E-07
CGA:   7    -0.524429379727E+02   -0.53367E-04   -0.53366E-04   512   0.559E-04 0.840E-07
CGA:   8    -0.524429563564E+02   -0.18384E-04   -0.18381E-04   512   0.171E-04 0.360E-07
CGA:   9    -0.524429620893E+02   -0.57329E-05   -0.57313E-05   512   0.501E-05 0.233E-07
CGA:  10    -0.524429639176E+02   -0.18283E-05   -0.18256E-05   512   0.167E-05 0.268E-07
CGA:  11    -0.524429645945E+02   -0.67688E-06   -0.67357E-06   512   0.640E-06 0.222E-07
CGA:  12    -0.524429648609E+02   -0.26641E-06   -0.26361E-06   512   0.221E-06 0.158E-07
CGA:  13    -0.524429649500E+02   -0.89045E-07   -0.87063E-07   512   0.620E-07 0.102E-07
CGA:  14    -0.524429649754E+02   -0.25486E-07   -0.23942E-07   512   0.161E-07 0.435E-08
CGA:  15    -0.524429649821E+02   -0.66939E-08   -0.55332E-08   512   0.416E-08 0.366E-08
   7 F= -.52442965E+02 E0= -.52442965E+02  d E =-.371127E-17
       N       E                     dE             d eps       ncg     rms          ort
SDA:   1    -0.523865598444E+02    0.56405E-01    0.00000E+00   512   0.999E-01 0.000E+00
CGA:   2    -0.524311721318E+02   -0.44612E-01   -0.44616E-01   512   0.362E-01-0.348E-04
CGA:   3    -0.524394482622E+02   -0.82761E-02   -0.82787E-02   512   0.612E-02-0.110E-04
CGA:   4    -0.524407027344E+02   -0.12545E-02   -0.12547E-02   512   0.125E-02-0.572E-06
CGA:   5    -0.524409955879E+02   -0.29285E-03   -0.29296E-03   512   0.289E-03 0.705E-06
CGA:   6    -0.524410761814E+02   -0.80593E-04   -0.80572E-04   512   0.871E-04-0.607E-06
CGA:   7    -0.524411026978E+02   -0.26516E-04   -0.26513E-04   512   0.283E-04-0.165E-06
CGA:   8    -0.524411118805E+02   -0.91827E-05   -0.91790E-05   512   0.854E-05 0.197E-06
CGA:   9    -0.524411148322E+02   -0.29517E-05   -0.29483E-05   512   0.255E-05 0.615E-07
CGA:  10    -0.524411157631E+02   -0.93090E-06   -0.92776E-06   512   0.826E-06 0.328E-07
CGA:  11    -0.524411160907E+02   -0.32755E-06   -0.32360E-06   512   0.302E-06 0.326E-07
CGA:  12    -0.524411162298E+02   -0.13915E-06   -0.13758E-06   512   0.124E-06-0.296E-08
CGA:  13    -0.524411162843E+02   -0.54450E-07   -0.52829E-07   512   0.409E-07-0.247E-08
CGA:  14    -0.524411163006E+02   -0.16358E-07   -0.14677E-07   512   0.107E-07 0.384E-08
CGA:  15    -0.524411163057E+02   -0.51132E-08   -0.37751E-08   512   0.318E-08 0.280E-08
   8 F= -.52441116E+02 E0= -.52441116E+02  d E =-.410346E-79
       N       E                     dE             d eps       ncg     rms          ort
SDA:   1    -0.523229116380E+02    0.11820E+00    0.00000E+00   512   0.219E+00 0.000E+00
CGA:   2    -0.524177025052E+02   -0.94791E-01   -0.94797E-01   512   0.853E-01-0.110E-03
CGA:   3    -0.524373382223E+02   -0.19636E-01   -0.19624E-01   512   0.141E-01-0.178E-05
CGA:   4    -0.524402409378E+02   -0.29027E-02   -0.29031E-02   512   0.278E-02-0.619E-06
CGA:   5    -0.524408794510E+02   -0.63851E-03   -0.63859E-03   512   0.622E-03-0.113E-05
CGA:   6    -0.524410509039E+02   -0.17145E-03   -0.17152E-03   512   0.187E-03 0.131E-05
CGA:   7    -0.524411076964E+02   -0.56793E-04   -0.56800E-04   512   0.614E-04 0.731E-06
CGA:   8    -0.524411282803E+02   -0.20584E-04   -0.20583E-04   512   0.199E-04-0.917E-07
CGA:   9    -0.524411351678E+02   -0.68876E-05   -0.68866E-05   512   0.612E-05-0.277E-07
CGA:  10    -0.524411373613E+02   -0.21935E-05   -0.21912E-05   512   0.187E-05 0.165E-07
CGA:  11    -0.524411380814E+02   -0.72007E-06   -0.71823E-06   512   0.631E-06 0.362E-08
CGA:  12    -0.524411383340E+02   -0.25257E-06   -0.24802E-06   512   0.215E-06 0.413E-07
CGA:  13    -0.524411384289E+02   -0.94926E-07   -0.91176E-07   512   0.746E-07 0.289E-07
CGA:  14    -0.524411384654E+02   -0.36509E-07   -0.34845E-07   512   0.257E-07 0.848E-08
CGA:  15    -0.524411384773E+02   -0.11931E-07   -0.10352E-07   512   0.739E-08 0.536E-08
CGA:  16    -0.524411384813E+02   -0.39454E-08   -0.27420E-08   512   0.250E-08 0.291E-08
   9 F= -.52441138E+02 E0= -.52441138E+02  d E =-.237081E-11
       N       E                     dE             d eps       ncg     rms          ort
SDA:   1    -0.523843456982E+02    0.56793E-01    0.00000E+00   512   0.105E+00 0.000E+00
CGA:   2    -0.524301641800E+02   -0.45818E-01   -0.45828E-01   512   0.441E-01-0.722E-04
CGA:   3    -0.524399332930E+02   -0.97691E-02   -0.97707E-02   512   0.656E-02-0.730E-05
CGA:   4    -0.524413378860E+02   -0.14046E-02   -0.14049E-02   512   0.133E-02-0.706E-06
CGA:   5    -0.524416510374E+02   -0.31315E-03   -0.31327E-03   512   0.322E-03 0.668E-06
CGA:   6    -0.524417428813E+02   -0.91844E-04   -0.91834E-04   512   0.103E-03-0.354E-06
CGA:   7    -0.524417753165E+02   -0.32435E-04   -0.32433E-04   512   0.373E-04-0.199E-06
CGA:   8    -0.524417879102E+02   -0.12594E-04   -0.12587E-04   512   0.131E-04 0.185E-06
CGA:   9    -0.524417926490E+02   -0.47387E-05   -0.47320E-05   512   0.460E-05 0.113E-06
CGA:  10    -0.524417944208E+02   -0.17718E-05   -0.17683E-05   512   0.166E-05 0.286E-07
CGA:  11    -0.524417950790E+02   -0.65823E-06   -0.65443E-06   512   0.583E-06 0.285E-07
CGA:  12    -0.524417953276E+02   -0.24859E-06   -0.24854E-06   512   0.209E-06-0.181E-07
CGA:  13    -0.524417954128E+02   -0.85169E-07   -0.84196E-07   512   0.635E-07-0.859E-08
CGA:  14    -0.524417954379E+02   -0.25146E-07   -0.23476E-07   512   0.167E-07 0.193E-08
CGA:  15    -0.524417954453E+02   -0.73269E-08   -0.58974E-08   512   0.451E-08 0.287E-08
  10 F= -.52441795E+02 E0= -.52441795E+02  d E =-.450466E-15
       N       E                     dE             d eps       ncg     rms          ort
SDA:   1    -0.523314307330E+02    0.11036E+00    0.00000E+00   512   0.198E+00 0.000E+00
CGA:   2    -0.524193520907E+02   -0.87921E-01   -0.87935E-01   512   0.905E-01-0.130E-03
CGA:   3    -0.524383180706E+02   -0.18966E-01   -0.18967E-01   512   0.113E-01 0.665E-06
CGA:   4    -0.524408514537E+02   -0.25334E-02   -0.25338E-02   512   0.251E-02-0.214E-06
CGA:   5    -0.524414686288E+02   -0.61718E-03   -0.61729E-03   512   0.672E-03-0.254E-07
CGA:   6    -0.524416674357E+02   -0.19881E-03   -0.19882E-03   512   0.231E-03 0.239E-06
CGA:   7    -0.524417404234E+02   -0.72988E-04   -0.72986E-04   512   0.876E-04 0.122E-06
CGA:   8    -0.524417700360E+02   -0.29613E-04   -0.29609E-04   512   0.320E-04 0.108E-07
CGA:   9    -0.524417816276E+02   -0.11592E-04   -0.11590E-04   512   0.116E-04-0.288E-07
CGA:  10    -0.524417860852E+02   -0.44576E-05   -0.44560E-05   512   0.419E-05-0.519E-08
CGA:  11    -0.524417877365E+02   -0.16513E-05   -0.16491E-05   512   0.143E-05 0.837E-08
CGA:  12    -0.524417882903E+02   -0.55387E-06   -0.55168E-06   512   0.429E-06 0.116E-07
CGA:  13    -0.524417884596E+02   -0.16923E-06   -0.16731E-06   512   0.120E-06 0.709E-08
CGA:  14    -0.524417885089E+02   -0.49326E-07   -0.47551E-07   512   0.326E-07 0.410E-08
CGA:  15    -0.524417885232E+02   -0.14279E-07   -0.12663E-07   512   0.880E-08 0.328E-08
CGA:  16    -0.524417885273E+02   -0.41182E-08   -0.30307E-08   512   0.277E-08 0.274E-08
  11 F= -.52441789E+02 E0= -.52441789E+02  d E =-.113451E-15
       N       E                     dE             d eps       ncg     rms          ort
SDA:   1    -0.523902308602E+02    0.51558E-01    0.00000E+00   512   0.950E-01 0.000E+00
CGA:   2    -0.524333733367E+02   -0.43142E-01   -0.43155E-01   512   0.370E-01-0.850E-04
CGA:   3    -0.524413172706E+02   -0.79439E-02   -0.79447E-02   512   0.561E-02-0.209E-05
CGA:   4    -0.524425409164E+02   -0.12236E-02   -0.12239E-02   512   0.119E-02-0.223E-06
CGA:   5    -0.524428260971E+02   -0.28518E-03   -0.28524E-03   512   0.312E-03 0.984E-07
CGA:   6    -0.524429144196E+02   -0.88322E-04   -0.88326E-04   512   0.996E-04 0.349E-07
CGA:   7    -0.524429457684E+02   -0.31349E-04   -0.31347E-04   512   0.360E-04 0.297E-07
CGA:   8    -0.524429577043E+02   -0.11936E-04   -0.11934E-04   512   0.124E-04 0.310E-07
CGA:   9    -0.524429621235E+02   -0.44192E-05   -0.44171E-05   512   0.427E-05 0.118E-07
CGA:  10    -0.524429637686E+02   -0.16451E-05   -0.16428E-05   512   0.161E-05 0.108E-07
CGA:  11    -0.524429644212E+02   -0.65257E-06   -0.65009E-06   512   0.600E-06 0.128E-07
CGA:  12    -0.524429646648E+02   -0.24365E-06   -0.24197E-06   512   0.194E-06 0.353E-08
CGA:  13    -0.524429647421E+02   -0.77311E-07   -0.75713E-07   512   0.548E-07 0.404E-08
CGA:  14    -0.524429647653E+02   -0.23185E-07   -0.21653E-07   512   0.157E-07 0.242E-08
CGA:  15    -0.524429647724E+02   -0.70304E-08   -0.57533E-08   512   0.456E-08 0.296E-08
  12 F= -.52442965E+02 E0= -.52442965E+02  d E =-.118184E-15
       N       E                     dE             d eps       ncg     rms          ort
SDA:   1    -0.523425803257E+02    0.10038E+00    0.00000E+00   512   0.182E+00 0.000E+00
CGA:   2    -0.524270829081E+02   -0.84503E-01   -0.84591E-01   512   0.557E-01-0.537E-03
CGA:   3    -0.524401435557E+02   -0.13061E-01   -0.13061E-01   512   0.103E-01-0.755E-05
CGA:   4    -0.524421845742E+02   -0.20410E-02   -0.20412E-02   512   0.225E-02-0.825E-06
CGA:   5    -0.524427330583E+02   -0.54848E-03   -0.54853E-03   512   0.539E-03-0.161E-06
CGA:   6    -0.524428839238E+02   -0.15087E-03   -0.15087E-03   512   0.174E-03-0.672E-07
CGA:   7    -0.524429373715E+02   -0.53448E-04   -0.53448E-04   512   0.560E-04 0.838E-07
CGA:   8    -0.524429558040E+02   -0.18432E-04   -0.18431E-04   512   0.172E-04 0.328E-07
CGA:   9    -0.524429615691E+02   -0.57651E-05   -0.57636E-05   512   0.506E-05 0.209E-07
CGA:  10    -0.524429634146E+02   -0.18455E-05   -0.18431E-05   512   0.169E-05 0.265E-07
CGA:  11    -0.524429640996E+02   -0.68500E-06   -0.68190E-06   512   0.647E-06 0.210E-07
CGA:  12    -0.524429643682E+02   -0.26863E-06   -0.26602E-06   512   0.223E-06 0.153E-07
CGA:  13    -0.524429644578E+02   -0.89543E-07   -0.87684E-07   512   0.626E-07 0.100E-07
CGA:  14    -0.524429644833E+02   -0.25560E-07   -0.24190E-07   512   0.162E-07 0.416E-08
CGA:  15    -0.524429644900E+02   -0.67121E-08   -0.56329E-08   512   0.415E-08 0.342E-08
  13 F= -.52442964E+02 E0= -.52442964E+02  d E =-.246313E-15
       N       E                     dE             d eps       ncg     rms          ort
SDA:   1    -0.523882407839E+02    0.54724E-01    0.00000E+00   512   0.966E-01 0.000E+00
CGA:   2    -0.524318311796E+02   -0.43590E-01   -0.43597E-01   512   0.368E-01-0.562E-04
CGA:   3    -0.524398927223E+02   -0.80615E-02   -0.80609E-02   512   0.585E-02 0.231E-05
CGA:   4    -0.524411467207E+02   -0.12540E-02   -0.12543E-02   512   0.122E-02-0.404E-07
CGA:   5    -0.524414355714E+02   -0.28885E-03   -0.28888E-03   512   0.310E-03-0.268E-06
CGA:   6    -0.524415222046E+02   -0.86633E-04   -0.86651E-04   512   0.964E-04 0.392E-06
CGA:   7    -0.524415522412E+02   -0.30037E-04   -0.30036E-04   512   0.336E-04 0.233E-06
CGA:   8    -0.524415633621E+02   -0.11121E-04   -0.11120E-04   512   0.113E-04-0.607E-07
CGA:   9    -0.524415673503E+02   -0.39882E-05   -0.39874E-05   512   0.380E-05-0.249E-07
CGA:  10    -0.524415688065E+02   -0.14562E-05   -0.14545E-05   512   0.143E-05 0.944E-08
CGA:  11    -0.524415694025E+02   -0.59601E-06   -0.59459E-06   512   0.572E-06-0.162E-08
CGA:  12    -0.524415696306E+02   -0.22810E-06   -0.22525E-06   512   0.185E-06 0.210E-07
CGA:  13    -0.524415697055E+02   -0.74951E-07   -0.73000E-07   512   0.526E-07 0.107E-07
CGA:  14    -0.524415697277E+02   -0.22173E-07   -0.20608E-07   512   0.140E-07 0.490E-08
CGA:  15    -0.524415697337E+02   -0.60372E-08   -0.49301E-08   512   0.382E-08 0.367E-08
  14 F= -.52441570E+02 E0= -.52441570E+02  d E =-.164707E-12
       N       E                     dE             d eps       ncg     rms          ort
SDA:   1    -0.523283809466E+02    0.11319E+00    0.00000E+00   512   0.206E+00 0.000E+00
CGA:   2    -0.524185615056E+02   -0.90181E-01   -0.90214E-01   512   0.898E-01-0.246E-03
CGA:   3    -0.524379669502E+02   -0.19405E-01   -0.19409E-01   512   0.125E-01-0.841E-05
CGA:   4    -0.524406900156E+02   -0.27231E-02   -0.27234E-02   512   0.261E-02-0.104E-05
CGA:   5    -0.524413117899E+02   -0.62177E-03   -0.62194E-03   512   0.650E-03 0.675E-06
CGA:   6    -0.524415005621E+02   -0.18877E-03   -0.18877E-03   512   0.215E-03-0.243E-06
CGA:   7    -0.524415687335E+02   -0.68171E-04   -0.68169E-04   512   0.805E-04-0.190E-06
CGA:   8    -0.524415961658E+02   -0.27432E-04   -0.27425E-04   512   0.294E-04 0.186E-06
CGA:   9    -0.524416068348E+02   -0.10669E-04   -0.10662E-04   512   0.105E-04 0.123E-06
CGA:  10    -0.524416108561E+02   -0.40213E-05   -0.40179E-05   512   0.372E-05 0.253E-07
CGA:  11    -0.524416123117E+02   -0.14556E-05   -0.14521E-05   512   0.126E-05 0.281E-07
CGA:  12    -0.524416128190E+02   -0.50736E-06   -0.50731E-06   512   0.405E-06-0.215E-07
CGA:  13    -0.524416129799E+02   -0.16085E-06   -0.15980E-06   512   0.117E-06-0.835E-08
CGA:  14    -0.524416130287E+02   -0.48849E-07   -0.47303E-07   512   0.345E-07-0.188E-08
CGA:  15    -0.524416130437E+02   -0.15016E-07   -0.13290E-07   512   0.973E-08 0.234E-08
CGA:  16    -0.524416130481E+02   -0.43856E-08   -0.32483E-08   512   0.317E-08 0.314E-08
  15 F= -.52441613E+02 E0= -.52441613E+02  d E =-.950672E-83
       N       E                     dE             d eps       ncg     rms          ort
SDA:   1    -0.523859010385E+02    0.55712E-01    0.00000E+00   512   0.998E-01 0.000E+00
CGA:   2    -0.524299954126E+02   -0.44094E-01   -0.44101E-01   512   0.455E-01-0.548E-04
CGA:   3    -0.524395980453E+02   -0.96026E-02   -0.96032E-02   512   0.573E-02-0.377E-05
CGA:   4    -0.524408761140E+02   -0.12781E-02   -0.12783E-02   512   0.125E-02-0.417E-06
CGA:   5    -0.524411817935E+02   -0.30568E-03   -0.30575E-03   512   0.327E-03 0.195E-06
CGA:   6    -0.524412782555E+02   -0.96462E-04   -0.96462E-04   512   0.111E-03 0.192E-08
CGA:   7    -0.524413136274E+02   -0.35372E-04   -0.35369E-04   512   0.424E-04-0.940E-08
CGA:   8    -0.524413280132E+02   -0.14386E-04   -0.14382E-04   512   0.155E-04 0.553E-07
CGA:   9    -0.524413336350E+02   -0.56218E-05   -0.56186E-05   512   0.555E-05 0.327E-07
CGA:  10    -0.524413357608E+02   -0.21258E-05   -0.21236E-05   512   0.195E-05 0.668E-08
CGA:  11    -0.524413365171E+02   -0.75631E-06   -0.75416E-06   512   0.631E-06 0.741E-08
CGA:  12    -0.524413367615E+02   -0.24433E-06   -0.24279E-06   512   0.184E-06-0.168E-08
CGA:  13    -0.524413368331E+02   -0.71666E-07   -0.69910E-07   512   0.495E-07 0.237E-08
CGA:  14    -0.524413368544E+02   -0.21229E-07   -0.19440E-07   512   0.138E-07 0.234E-08
CGA:  15    -0.524413368605E+02   -0.61154E-08   -0.47481E-08   512   0.390E-08 0.340E-08
  16 F= -.52441337E+02 E0= -.52441337E+02  d E =-.100732E-77
       N       E                     dE             d eps       ncg     rms          ort
SDA:   1    -0.523256276407E+02    0.11571E+00    0.00000E+00   512   0.212E+00 0.000E+00
CGA:   2    -0.524178564904E+02   -0.92229E-01   -0.92229E-01   512   0.877E-01-0.741E-04
CGA:   3    -0.524374952400E+02   -0.19639E-01   -0.19632E-01   512   0.135E-01 0.358E-05
CGA:   4    -0.524403843768E+02   -0.28891E-02   -0.28895E-02   512   0.274E-02-0.826E-07
CGA:   5    -0.524410272562E+02   -0.64288E-03   -0.64296E-03   512   0.665E-03-0.838E-06
CGA:   6    -0.524412152106E+02   -0.18795E-03   -0.18800E-03   512   0.212E-03 0.107E-05
CGA:   7    -0.524412809384E+02   -0.65728E-04   -0.65732E-04   512   0.738E-04 0.641E-06
CGA:   8    -0.524413057038E+02   -0.24765E-04   -0.24764E-04   512   0.249E-04-0.883E-07
CGA:   9    -0.524413145113E+02   -0.88076E-05   -0.88087E-05   512   0.823E-05-0.874E-07
CGA:  10    -0.524413175866E+02   -0.30752E-05   -0.30735E-05   512   0.283E-05-0.252E-10
CGA:  11    -0.524413187291E+02   -0.11425E-05   -0.11415E-05   512   0.106E-05-0.690E-08
CGA:  12    -0.524413191555E+02   -0.42635E-06   -0.42172E-06   512   0.363E-06 0.431E-07
CGA:  13    -0.524413193086E+02   -0.15314E-06   -0.14995E-06   512   0.115E-06 0.247E-07
CGA:  14    -0.524413193605E+02   -0.51947E-07   -0.49968E-07   512   0.348E-07 0.622E-08
CGA:  15    -0.524413193759E+02   -0.15330E-07   -0.13834E-07   512   0.946E-08 0.405E-08
CGA:  16    -0.524413193810E+02   -0.51223E-08   -0.37464E-08   512   0.286E-08 0.219E-08
  17 F= -.52441319E+02 E0= -.52441319E+02  d E =-.777386E-83
       N       E                     dE             d eps       ncg     rms          ort
SDA:   1    -0.523887313112E+02    0.52588E-01    0.00000E+00   512   0.992E-01 0.000E+00
CGA:   2    -0.524328810120E+02   -0.44150E-01   -0.44168E-01   512   0.372E-01-0.124E-03
CGA:   3    -0.524412647756E+02   -0.83838E-02   -0.83861E-02   512   0.611E-02-0.753E-05
CGA:   4    -0.524425414739E+02   -0.12767E-02   -0.12770E-02   512   0.125E-02-0.460E-06
CGA:   5    -0.524428356515E+02   -0.29418E-03   -0.29428E-03   512   0.300E-03 0.578E-06
CGA:   6    -0.524429197144E+02   -0.84063E-04   -0.84046E-04   512   0.924E-04-0.431E-06
CGA:   7    -0.524429483988E+02   -0.28684E-04   -0.28681E-04   512   0.316E-04-0.149E-06
CGA:   8    -0.524429588224E+02   -0.10424E-04   -0.10421E-04   512   0.103E-04 0.163E-06
CGA:   9    -0.524429624400E+02   -0.36176E-05   -0.36141E-05   512   0.332E-05 0.685E-07
CGA:  10    -0.524429636962E+02   -0.12562E-05   -0.12530E-05   512   0.119E-05 0.292E-07
CGA:  11    -0.524429641820E+02   -0.48577E-06   -0.48146E-06   512   0.462E-06 0.353E-07
CGA:  12    -0.524429643911E+02   -0.20912E-06   -0.20840E-06   512   0.186E-06-0.937E-08
CGA:  13    -0.524429644685E+02   -0.77360E-07   -0.76054E-07   512   0.577E-07-0.458E-08
CGA:  14    -0.524429644914E+02   -0.22881E-07   -0.21268E-07   512   0.152E-07 0.276E-08
CGA:  15    -0.524429644983E+02   -0.69340E-08   -0.54887E-08   512   0.415E-08 0.252E-08
  18 F= -.52442964E+02 E0= -.52442964E+02  d E =-.225848E-14
       N       E                     dE             d eps       ncg     rms          ort
SDA:   1    -0.523426346504E+02    0.10033E+00    0.00000E+00   512   0.182E+00 0.000E+00
CGA:   2    -0.524271207319E+02   -0.84486E-01   -0.84575E-01   512   0.556E-01-0.534E-03
CGA:   3    -0.524401467810E+02   -0.13026E-01   -0.13026E-01   512   0.103E-01-0.749E-05
CGA:   4    -0.524421855932E+02   -0.20388E-02   -0.20390E-02   512   0.224E-02-0.833E-06
CGA:   5    -0.524427333545E+02   -0.54776E-03   -0.54781E-03   512   0.538E-03-0.149E-06
CGA:   6    -0.524428841949E+02   -0.15084E-03   -0.15085E-03   512   0.174E-03-0.533E-07
CGA:   7    -0.524429376742E+02   -0.53479E-04   -0.53479E-04   512   0.560E-04 0.838E-07
CGA:   8    -0.524429561183E+02   -0.18444E-04   -0.18442E-04   512   0.172E-04 0.344E-07
CGA:   9    -0.524429618901E+02   -0.57718E-05   -0.57701E-05   512   0.506E-05 0.237E-07
CGA:  10    -0.524429637384E+02   -0.18484E-05   -0.18458E-05   512   0.169E-05 0.266E-07
CGA:  11    -0.524429644239E+02   -0.68546E-06   -0.68234E-06   512   0.649E-06 0.217E-07
CGA:  12    -0.524429646932E+02   -0.26935E-06   -0.26665E-06   512   0.223E-06 0.156E-07
CGA:  13    -0.524429647829E+02   -0.89671E-07   -0.87753E-07   512   0.623E-07 0.102E-07
CGA:  14    -0.524429648084E+02   -0.25513E-07   -0.24047E-07   512   0.162E-07 0.431E-08
CGA:  15    -0.524429648152E+02   -0.67448E-08   -0.56240E-08   512   0.415E-08 0.345E-08
  19 F= -.52442965E+02 E0= -.52442965E+02  d E =-.336487E-14
       N       E                     dE             d eps       ncg     rms          ort
SDA:   1    -0.524145135286E+02    0.28451E-01    0.00000E+00   512   0.508E-01 0.000E+00
CGA:   2    -0.524381177647E+02   -0.23604E-01   -0.23610E-01   512   0.154E-01-0.360E-04
CGA:   3    -0.524417155947E+02   -0.35978E-02   -0.35981E-02   512   0.276E-02-0.432E-05
CGA:   4    -0.524422669985E+02   -0.55140E-03   -0.55160E-03   512   0.599E-03 0.123E-06
CGA:   5    -0.524424107152E+02   -0.14372E-03   -0.14376E-03   512   0.141E-03 0.315E-06
CGA:   6    -0.524424499024E+02   -0.39187E-04   -0.39190E-04   512   0.438E-04 0.542E-07
CGA:   7    -0.524424632450E+02   -0.13343E-04   -0.13342E-04   512   0.138E-04 0.795E-07
CGA:   8    -0.524424677345E+02   -0.44895E-05   -0.44879E-05   512   0.416E-05 0.368E-07
CGA:   9    -0.524424691308E+02   -0.13964E-05   -0.13950E-05   512   0.122E-05-0.228E-08
CGA:  10    -0.524424695808E+02   -0.44996E-06   -0.44820E-06   512   0.427E-06 0.494E-08
CGA:  11    -0.524424697603E+02   -0.17957E-06   -0.17659E-06   512   0.183E-06 0.152E-07
CGA:  12    -0.524424698445E+02   -0.84188E-07   -0.81565E-07   512   0.744E-07 0.939E-08
CGA:  13    -0.524424698774E+02   -0.32871E-07   -0.30990E-07   512   0.225E-07 0.582E-08
CGA:  14    -0.524424698869E+02   -0.95497E-08   -0.82987E-08   512   0.568E-08 0.410E-08
  20 F= -.52442470E+02 E0= -.52442470E+02  d E =-.295865E-14
       N       E                     dE             d eps       ncg     rms          ort
SDA:   1    -0.524309096960E+02    0.11560E-01    0.00000E+00   512   0.216E-01 0.000E+00
CGA:   2    -0.524406577411E+02   -0.97480E-02   -0.97489E-02   512   0.683E-02-0.921E-05
CGA:   3    -0.524421721739E+02   -0.15144E-02   -0.15148E-02   512   0.911E-03 0.431E-05
CGA:   4    -0.524423773124E+02   -0.20514E-03   -0.20517E-03   512   0.188E-03-0.252E-06
CGA:   5    -0.524424227536E+02   -0.45441E-04   -0.45430E-04   512   0.475E-04-0.209E-06
CGA:   6    -0.524424361276E+02   -0.13374E-04   -0.13368E-04   512   0.143E-04-0.137E-06
CGA:   7    -0.524424406550E+02   -0.45273E-05   -0.45260E-05   512   0.463E-05-0.557E-07
CGA:   8    -0.524424421796E+02   -0.15246E-05   -0.15232E-05   512   0.137E-05-0.550E-08
CGA:   9    -0.524424426291E+02   -0.44956E-06   -0.44817E-06   512   0.350E-06 0.135E-07
CGA:  10    -0.524424427486E+02   -0.11950E-06   -0.11807E-06   512   0.868E-07 0.953E-08
CGA:  11    -0.524424427839E+02   -0.35265E-07   -0.33858E-07   512   0.270E-07-0.136E-08
CGA:  12    -0.524424427950E+02   -0.11083E-07   -0.95682E-08   512   0.778E-08 0.254E-08
CGA:  13    -0.524424427982E+02   -0.32305E-08   -0.23380E-08   512   0.259E-08 0.310E-08
  21 F= -.52442443E+02 E0= -.52442443E+02  d E =-.680155E-14
       N       E                     dE             d eps       ncg     rms          ort
SDA:   1    -0.524373977404E+02    0.50451E-02    0.00000E+00   512   0.113E-01 0.000E+00
CGA:   2    -0.524423284372E+02   -0.49307E-02   -0.49303E-02   512   0.357E-02 0.184E-05
CGA:   3    -0.524431495687E+02   -0.82113E-03   -0.82107E-03   512   0.490E-03-0.295E-05
CGA:   4    -0.524432603612E+02   -0.11079E-03   -0.11082E-03   512   0.982E-04 0.141E-06
CGA:   5    -0.524432839367E+02   -0.23576E-04   -0.23583E-04   512   0.235E-04 0.916E-07
CGA:   6    -0.524432904245E+02   -0.64878E-05   -0.64891E-05   512   0.669E-05 0.696E-07
CGA:   7    -0.524432925767E+02   -0.21523E-05   -0.21503E-05   512   0.225E-05 0.423E-07
CGA:   8    -0.524432933544E+02   -0.77764E-06   -0.77570E-06   512   0.738E-06 0.150E-07
CGA:   9    -0.524432936131E+02   -0.25873E-06   -0.25725E-06   512   0.215E-06 0.127E-08
CGA:  10    -0.524432936914E+02   -0.78278E-07   -0.76734E-07   512   0.636E-07 0.336E-08
CGA:  11    -0.524432937162E+02   -0.24856E-07   -0.23132E-07   512   0.211E-07 0.814E-08
CGA:  12    -0.524432937264E+02   -0.10185E-07   -0.85326E-08   512   0.829E-08 0.584E-08
CGA:  13    -0.524432937309E+02   -0.44838E-08   -0.32993E-08   512   0.322E-08 0.398E-08
  22 F= -.52443294E+02 E0= -.52443294E+02  d E =-.278383E-14
       N       E                     dE             d eps       ncg     rms          ort
SDA:   1    -0.524313531513E+02    0.11941E-01    0.00000E+00   512   0.232E-01 0.000E+00
CGA:   2    -0.524413087206E+02   -0.99556E-02   -0.99553E-02   512   0.724E-02-0.946E-06
CGA:   3    -0.524430057396E+02   -0.16970E-02   -0.16971E-02   512   0.984E-03-0.416E-06
CGA:   4    -0.524432300570E+02   -0.22432E-03   -0.22435E-03   512   0.195E-03 0.241E-07
CGA:   5    -0.524432766860E+02   -0.46629E-04   -0.46631E-04   512   0.439E-04 0.299E-08
CGA:   6    -0.524432886697E+02   -0.11984E-04   -0.11983E-04   512   0.117E-04 0.318E-08
CGA:   7    -0.524432924604E+02   -0.37907E-05   -0.37891E-05   512   0.401E-05-0.111E-08
CGA:   8    -0.524432939074E+02   -0.14469E-05   -0.14450E-05   512   0.149E-05 0.361E-08
CGA:   9    -0.524432944569E+02   -0.54948E-06   -0.54726E-06   512   0.502E-06 0.747E-08
CGA:  10    -0.524432946528E+02   -0.19599E-06   -0.19369E-06   512   0.173E-06 0.677E-08
CGA:  11    -0.524432947290E+02   -0.76125E-07   -0.73417E-07   512   0.683E-07 0.686E-08
CGA:  12    -0.524432947612E+02   -0.32191E-07   -0.29629E-07   512   0.247E-07 0.648E-08
CGA:  13    -0.524432947727E+02   -0.11541E-07   -0.97031E-08   512   0.674E-08 0.507E-08
CGA:  14    -0.524432947756E+02   -0.29340E-08   -0.20268E-08   512   0.212E-08 0.352E-08
  23 F= -.52443295E+02 E0= -.52443295E+02  d E =-.718455E-14
       N       E                     dE             d eps       ncg     rms          ort
SDA:   1    -0.524374036227E+02    0.58912E-02    0.00000E+00   512   0.116E-01 0.000E+00
CGA:   2    -0.524425847669E+02   -0.51811E-02   -0.51809E-02   512   0.306E-02 0.534E-06
CGA:   3    -0.524432979553E+02   -0.71319E-03   -0.71325E-03   512   0.436E-03-0.414E-06
CGA:   4    -0.524433992589E+02   -0.10130E-03   -0.10132E-03   512   0.878E-04 0.522E-07
CGA:   5    -0.524434199514E+02   -0.20692E-04   -0.20694E-04   512   0.192E-04 0.128E-07
CGA:   6    -0.524434250685E+02   -0.51171E-05   -0.51162E-05   512   0.497E-05 0.363E-08
CGA:   7    -0.524434266379E+02   -0.15695E-05   -0.15679E-05   512   0.162E-05 0.721E-08
CGA:   8    -0.524434272088E+02   -0.57091E-06   -0.56908E-06   512   0.566E-06 0.552E-08
CGA:   9    -0.524434274123E+02   -0.20344E-06   -0.20163E-06   512   0.176E-06 0.469E-08
CGA:  10    -0.524434274787E+02   -0.66435E-07   -0.64545E-07   512   0.542E-07 0.557E-08
CGA:  11    -0.524434275022E+02   -0.23449E-07   -0.21483E-07   512   0.199E-07 0.564E-08
CGA:  12    -0.524434275122E+02   -0.99972E-08   -0.82086E-08   512   0.772E-08 0.491E-08
  24 F= -.52443428E+02 E0= -.52443428E+02  d E =-.372266E-14
       N       E                     dE             d eps       ncg     rms          ort
SDA:   1    -0.524312933527E+02    0.12134E-01    0.00000E+00   512   0.231E-01 0.000E+00
CGA:   2    -0.524420953810E+02   -0.10802E-01   -0.10802E-01   512   0.458E-02-0.404E-06
CGA:   3    -0.524432181583E+02   -0.11228E-02   -0.11229E-02   512   0.696E-03-0.454E-06
CGA:   4    -0.524433840137E+02   -0.16586E-03   -0.16588E-03   512   0.139E-03 0.577E-07
CGA:   5    -0.524434162412E+02   -0.32227E-04   -0.32229E-04   512   0.304E-04 0.252E-08
CGA:   6    -0.524434241961E+02   -0.79549E-05   -0.79538E-05   512   0.793E-05 0.135E-08
CGA:   7    -0.524434266135E+02   -0.24175E-05   -0.24161E-05   512   0.247E-05 0.494E-08
CGA:   8    -0.524434274389E+02   -0.82541E-06   -0.82391E-06   512   0.767E-06 0.422E-08
CGA:   9    -0.524434276949E+02   -0.25597E-06   -0.25450E-06   512   0.194E-06 0.426E-08
CGA:  10    -0.524434277604E+02   -0.65507E-07   -0.64061E-07   512   0.408E-07 0.481E-08
CGA:  11    -0.524434277749E+02   -0.14457E-07   -0.13177E-07   512   0.832E-08 0.444E-08
CGA:  12    -0.524434277780E+02   -0.31068E-08   -0.22936E-08   512   0.228E-08 0.326E-08
  25 F= -.52443428E+02 E0= -.52443428E+02  d E =-.530199E-14
       N       E                     dE             d eps       ncg     rms          ort
SDA:   1    -0.524371194648E+02    0.63083E-02    0.00000E+00   512   0.115E-01 0.000E+00
CGA:   2    -0.524422891249E+02   -0.51697E-02   -0.51695E-02   512   0.307E-02-0.222E-06
CGA:   3    -0.524429994292E+02   -0.71030E-03   -0.71045E-03   512   0.438E-03 0.104E-05
CGA:   4    -0.524431012024E+02   -0.10177E-03   -0.10178E-03   512   0.889E-04-0.873E-07
CGA:   5    -0.524431221170E+02   -0.20915E-04   -0.20913E-04   512   0.197E-04-0.184E-07
CGA:   6    -0.524431273745E+02   -0.52575E-05   -0.52558E-05   512   0.521E-05-0.192E-07
CGA:   7    -0.524431290153E+02   -0.16408E-05   -0.16395E-05   512   0.171E-05-0.964E-08
CGA:   8    -0.524431296097E+02   -0.59444E-06   -0.59269E-06   512   0.585E-06 0.916E-09
CGA:   9    -0.524431298161E+02   -0.20636E-06   -0.20446E-06   512   0.174E-06 0.583E-08
CGA:  10    -0.524431298815E+02   -0.65422E-07   -0.63442E-07   512   0.523E-07 0.542E-08
CGA:  11    -0.524431299046E+02   -0.23036E-07   -0.20939E-07   512   0.194E-07 0.415E-08
CGA:  12    -0.524431299141E+02   -0.94969E-08   -0.76019E-08   512   0.729E-08 0.490E-08
  26 F= -.52443130E+02 E0= -.52443130E+02  d E =-.605745E-14
       N       E                     dE             d eps       ncg     rms          ort
SDA:   1    -0.524312267714E+02    0.11903E-01    0.00000E+00   512   0.231E-01 0.000E+00
CGA:   2    -0.524411313108E+02   -0.99045E-02   -0.99037E-02   512   0.729E-02 0.411E-05
CGA:   3    -0.524428326178E+02   -0.17013E-02   -0.17015E-02   512   0.100E-02-0.259E-05
CGA:   4    -0.524430600428E+02   -0.22742E-03   -0.22747E-03   512   0.200E-03 0.137E-06
CGA:   5    -0.524431077588E+02   -0.47716E-04   -0.47724E-04   512   0.460E-04 0.707E-07
CGA:   6    -0.524431203263E+02   -0.12568E-04   -0.12569E-04   512   0.126E-04 0.634E-07
CGA:   7    -0.524431243820E+02   -0.40556E-05   -0.40534E-05   512   0.432E-05 0.410E-07
CGA:   8    -0.524431259115E+02   -0.15296E-05   -0.15272E-05   512   0.154E-05 0.165E-07
CGA:   9    -0.524431264672E+02   -0.55564E-06   -0.55373E-06   512   0.487E-06 0.449E-08
CGA:  10    -0.524431266519E+02   -0.18474E-06   -0.18268E-06   512   0.159E-06 0.626E-08
CGA:  11    -0.524431267187E+02   -0.66817E-07   -0.64210E-07   512   0.603E-07 0.103E-07
CGA:  12    -0.524431267480E+02   -0.29306E-07   -0.26847E-07   512   0.236E-07 0.684E-08
CGA:  13    -0.524431267598E+02   -0.11714E-07   -0.98908E-08   512   0.708E-08 0.483E-08
CGA:  14    -0.524431267632E+02   -0.34070E-08   -0.23993E-08   512   0.213E-08 0.327E-08
  27 F= -.52443127E+02 E0= -.52443127E+02  d E =-.448654E-14
       N       E                     dE             d eps       ncg     rms          ort
SDA:   1    -0.524368077546E+02    0.63190E-02    0.00000E+00   512   0.110E-01 0.000E+00
CGA:   2    -0.524416836975E+02   -0.48759E-02   -0.48760E-02   512   0.354E-02-0.237E-05
CGA:   3    -0.524424741157E+02   -0.79042E-03   -0.79073E-03   512   0.473E-03 0.319E-05
CGA:   4    -0.524425804979E+02   -0.10638E-03   -0.10639E-03   512   0.967E-04-0.121E-06
CGA:   5    -0.524426038105E+02   -0.23313E-04   -0.23304E-04   512   0.241E-04-0.139E-06
CGA:   6    -0.524426105546E+02   -0.67441E-05   -0.67403E-05   512   0.712E-05-0.983E-07
CGA:   7    -0.524426128194E+02   -0.22648E-05   -0.22639E-05   512   0.234E-05-0.440E-07
CGA:   8    -0.524426135928E+02   -0.77341E-06   -0.77199E-06   512   0.705E-06-0.605E-08
CGA:   9    -0.524426138255E+02   -0.23271E-06   -0.23109E-06   512   0.181E-06 0.103E-07
CGA:  10    -0.524426138888E+02   -0.63272E-07   -0.61675E-07   512   0.463E-07 0.715E-08
CGA:  11    -0.524426139088E+02   -0.20000E-07   -0.18297E-07   512   0.154E-07 0.426E-09
CGA:  12    -0.524426139156E+02   -0.67812E-08   -0.52625E-08   512   0.473E-08 0.297E-08
  28 F= -.52442614E+02 E0= -.52442614E+02  d E =-.923843E-14
       N       E                     dE             d eps       ncg     rms          ort
SDA:   1    -0.524309715080E+02    0.11642E-01    0.00000E+00   512   0.222E-01 0.000E+00
CGA:   2    -0.524407383185E+02   -0.97668E-02   -0.97660E-02   512   0.706E-02 0.484E-05
CGA:   3    -0.524423451001E+02   -0.16068E-02   -0.16068E-02   512   0.966E-03-0.509E-05
CGA:   4    -0.524425632477E+02   -0.21815E-03   -0.21819E-03   512   0.197E-03 0.138E-06
CGA:   5    -0.524426104395E+02   -0.47192E-04   -0.47208E-04   512   0.481E-04 0.176E-06
CGA:   6    -0.524426238335E+02   -0.13394E-04   -0.13397E-04   512   0.141E-04 0.136E-06
CGA:   7    -0.524426283531E+02   -0.45196E-05   -0.45168E-05   512   0.470E-05 0.740E-07
CGA:   8    -0.524426299464E+02   -0.15933E-05   -0.15910E-05   512   0.146E-05 0.263E-07
CGA:   9    -0.524426304460E+02   -0.49964E-06   -0.49820E-06   512   0.397E-06 0.234E-09
CGA:  10    -0.524426305850E+02   -0.13894E-06   -0.13737E-06   512   0.108E-06 0.291E-08
CGA:  11    -0.524426306244E+02   -0.39392E-07   -0.37531E-07   512   0.325E-07 0.119E-07
CGA:  12    -0.524426306390E+02   -0.14641E-07   -0.12807E-07   512   0.123E-07 0.788E-08
CGA:  13    -0.524426306457E+02   -0.66775E-08   -0.51609E-08   512   0.482E-08 0.490E-08
  29 F= -.52442631E+02 E0= -.52442631E+02  d E =-.707579E-14
       N       E                     dE             d eps       ncg     rms          ort
SDA:   1    -0.524375123429E+02    0.51183E-02    0.00000E+00   512   0.112E-01 0.000E+00
CGA:   2    -0.524426391785E+02   -0.51268E-02   -0.51270E-02   512   0.290E-02-0.262E-05
CGA:   3    -0.524433018276E+02   -0.66265E-03   -0.66284E-03   512   0.421E-03 0.188E-05
CGA:   4    -0.524433992117E+02   -0.97384E-04   -0.97377E-04   512   0.869E-04-0.218E-06
CGA:   5    -0.524434197019E+02   -0.20490E-04   -0.20485E-04   512   0.199E-04-0.723E-07
CGA:   6    -0.524434250554E+02   -0.53535E-05   -0.53510E-05   512   0.542E-05-0.405E-07
CGA:   7    -0.524434267599E+02   -0.17045E-05   -0.17033E-05   512   0.175E-05-0.231E-07
CGA:   8    -0.524434273505E+02   -0.59063E-06   -0.58927E-06   512   0.548E-06-0.439E-08
CGA:   9    -0.524434275345E+02   -0.18398E-06   -0.18235E-06   512   0.143E-06 0.678E-08
CGA:  10    -0.524434275847E+02   -0.50246E-07   -0.48614E-07   512   0.354E-07 0.493E-08
CGA:  11    -0.524434275996E+02   -0.14910E-07   -0.13178E-07   512   0.106E-07 0.214E-08
CGA:  12    -0.524434276043E+02   -0.46621E-08   -0.33859E-08   512   0.355E-08 0.345E-08
  30 F= -.52443428E+02 E0= -.52443428E+02  d E =-.518913E-14
       N       E                     dE             d eps       ncg     rms          ort
SDA:   1    -0.524313029154E+02    0.12125E-01    0.00000E+00   512   0.231E-01 0.000E+00
CGA:   2    -0.524420971567E+02   -0.10794E-01   -0.10794E-01   512   0.458E-02-0.316E-06
CGA:   3    -0.524432185198E+02   -0.11214E-02   -0.11214E-02   512   0.694E-03-0.416E-06
CGA:   4    -0.524433840772E+02   -0.16556E-03   -0.16558E-03   512   0.138E-03 0.765E-07
CGA:   5    -0.524434162184E+02   -0.32141E-04   -0.32143E-04   512   0.303E-04 0.278E-08
CGA:   6    -0.524434241387E+02   -0.79202E-05   -0.79191E-05   512   0.786E-05 0.237E-08
CGA:   7    -0.524434265399E+02   -0.24012E-05   -0.23997E-05   512   0.244E-05 0.604E-08
CGA:   8    -0.524434273576E+02   -0.81765E-06   -0.81587E-06   512   0.756E-06 0.463E-08
CGA:   9    -0.524434276103E+02   -0.25271E-06   -0.25108E-06   512   0.191E-06 0.485E-08
CGA:  10    -0.524434276748E+02   -0.64541E-07   -0.62941E-07   512   0.401E-07 0.528E-08
CGA:  11    -0.524434276891E+02   -0.14268E-07   -0.12823E-07   512   0.815E-08 0.489E-08
CGA:  12    -0.524434276920E+02   -0.29158E-08   -0.21337E-08   512   0.238E-08 0.361E-08
  31 F= -.52443428E+02 E0= -.52443428E+02  d E =-.686293E-14
       N       E                     dE             d eps       ncg     rms          ort
SDA:   1    -0.524370437613E+02    0.63839E-02    0.00000E+00   512   0.115E-01 0.000E+00
CGA:   2    -0.524422087551E+02   -0.51650E-02   -0.51648E-02   512   0.304E-02-0.109E-06
CGA:   3    -0.524429121813E+02   -0.70343E-03   -0.70356E-03   512   0.436E-03 0.133E-05
CGA:   4    -0.524430133085E+02   -0.10113E-03   -0.10113E-03   512   0.886E-04-0.113E-06
CGA:   5    -0.524430341451E+02   -0.20837E-04   -0.20835E-04   512   0.197E-04-0.230E-07
CGA:   6    -0.524430394152E+02   -0.52700E-05   -0.52683E-05   512   0.520E-05-0.244E-07
CGA:   7    -0.524430410564E+02   -0.16413E-05   -0.16401E-05   512   0.171E-05-0.129E-07
CGA:   8    -0.524430416455E+02   -0.58904E-06   -0.58743E-06   512   0.577E-06-0.178E-11
CGA:   9    -0.524430418476E+02   -0.20207E-06   -0.20014E-06   512   0.168E-06 0.556E-08
CGA:  10    -0.524430419103E+02   -0.62766E-07   -0.60796E-07   512   0.493E-07 0.527E-08
CGA:  11    -0.524430419320E+02   -0.21641E-07   -0.19571E-07   512   0.180E-07 0.378E-08
CGA:  12    -0.524430419407E+02   -0.87075E-08   -0.68600E-08   512   0.670E-08 0.483E-08
  32 F= -.52443042E+02 E0= -.52443042E+02  d E =-.406015E-14
       N       E                     dE             d eps       ncg     rms          ort
SDA:   1    -0.524311785716E+02    0.11863E-01    0.00000E+00   512   0.230E-01 0.000E+00
CGA:   2    -0.524410672503E+02   -0.98887E-02   -0.98878E-02   512   0.723E-02 0.472E-05
CGA:   3    -0.524427485831E+02   -0.16813E-02   -0.16815E-02   512   0.993E-03-0.291E-05
CGA:   4    -0.524429740792E+02   -0.22550E-03   -0.22554E-03   512   0.198E-03 0.164E-06
CGA:   5    -0.524430214469E+02   -0.47368E-04   -0.47376E-04   512   0.458E-04 0.854E-07
CGA:   6    -0.524430340145E+02   -0.12568E-04   -0.12569E-04   512   0.127E-04 0.813E-07
CGA:   7    -0.524430380920E+02   -0.40775E-05   -0.40747E-05   512   0.433E-05 0.489E-07
CGA:   8    -0.524430396132E+02   -0.15212E-05   -0.15185E-05   512   0.151E-05 0.189E-07
CGA:   9    -0.524430401533E+02   -0.54014E-06   -0.53815E-06   512   0.466E-06 0.543E-08
CGA:  10    -0.524430403286E+02   -0.17522E-06   -0.17304E-06   512   0.149E-06 0.617E-08
CGA:  11    -0.524430403901E+02   -0.61571E-07   -0.58880E-07   512   0.551E-07 0.112E-07
CGA:  12    -0.524430404170E+02   -0.26908E-07   -0.24293E-07   512   0.217E-07 0.761E-08
CGA:  13    -0.524430404281E+02   -0.11090E-07   -0.91582E-08   512   0.683E-08 0.524E-08
CGA:  14    -0.524430404315E+02   -0.34088E-08   -0.23514E-08   512   0.220E-08 0.345E-08
  33 F= -.52443040E+02 E0= -.52443040E+02  d E =-.100578E-13
       N       E                     dE             d eps       ncg     rms          ort
SDA:   1    -0.524367732897E+02    0.62671E-02    0.00000E+00   512   0.116E-01 0.000E+00
CGA:   2    -0.524417365034E+02   -0.49632E-02   -0.49629E-02   512   0.356E-02 0.111E-05
CGA:   3    -0.524425723071E+02   -0.83580E-03   -0.83587E-03   512   0.487E-03-0.825E-06
CGA:   4    -0.524426833250E+02   -0.11102E-03   -0.11104E-03   512   0.967E-04 0.979E-07
CGA:   5    -0.524427064356E+02   -0.23111E-04   -0.23113E-04   512   0.219E-04 0.269E-07
CGA:   6    -0.524427123884E+02   -0.59528E-05   -0.59521E-05   512   0.588E-05 0.171E-07
CGA:   7    -0.524427142819E+02   -0.18935E-05   -0.18916E-05   512   0.201E-05 0.176E-07
CGA:   8    -0.524427150053E+02   -0.72337E-06   -0.72121E-06   512   0.735E-06 0.826E-08
CGA:   9    -0.524427152769E+02   -0.27162E-06   -0.26971E-06   512   0.242E-06 0.437E-08
CGA:  10    -0.524427153705E+02   -0.93572E-07   -0.91510E-07   512   0.804E-07 0.602E-08
CGA:  11    -0.524427154056E+02   -0.35096E-07   -0.32733E-07   512   0.303E-07 0.696E-08
CGA:  12    -0.524427154206E+02   -0.14990E-07   -0.12812E-07   512   0.110E-07 0.576E-08
CGA:  13    -0.524427154259E+02   -0.53842E-08   -0.40827E-08   512   0.346E-08 0.439E-08
  34 F= -.52442715E+02 E0= -.52442715E+02  d E =-.699524E-14
       N       E                     dE             d eps       ncg     rms          ort
SDA:   1    -0.524310611445E+02    0.11654E-01    0.00000E+00   512   0.220E-01 0.000E+00
CGA:   2    -0.524408568244E+02   -0.97957E-02   -0.97966E-02   512   0.695E-02-0.984E-05
CGA:   3    -0.524424276597E+02   -0.15708E-02   -0.15710E-02   512   0.931E-03 0.341E-05
CGA:   4    -0.524426384806E+02   -0.21082E-03   -0.21084E-03   512   0.189E-03-0.236E-06
CGA:   5    -0.524426843051E+02   -0.45825E-04   -0.45818E-04   512   0.464E-04-0.150E-06
CGA:   6    -0.524426972126E+02   -0.12907E-04   -0.12904E-04   512   0.135E-04-0.106E-06
CGA:   7    -0.524427015189E+02   -0.43064E-05   -0.43057E-05   512   0.447E-05-0.551E-07
CGA:   8    -0.524427030253E+02   -0.15063E-05   -0.15050E-05   512   0.140E-05-0.809E-08
CGA:   9    -0.524427035014E+02   -0.47614E-06   -0.47422E-06   512   0.385E-06 0.129E-07
CGA:  10    -0.524427036409E+02   -0.13951E-06   -0.13770E-06   512   0.112E-06 0.726E-08
CGA:  11    -0.524427036888E+02   -0.47914E-07   -0.46276E-07   512   0.428E-07-0.772E-09
CGA:  12    -0.524427037082E+02   -0.19338E-07   -0.17325E-07   512   0.158E-07 0.348E-08
CGA:  13    -0.524427037155E+02   -0.73633E-08   -0.58431E-08   512   0.521E-08 0.459E-08
  35 F= -.52442704E+02 E0= -.52442704E+02  d E =-.761082E-14
       N       E                     dE             d eps       ncg     rms          ort
SDA:   1    -0.524374527879E+02    0.52509E-02    0.00000E+00   512   0.114E-01 0.000E+00
CGA:   2    -0.524426090153E+02   -0.51562E-02   -0.51558E-02   512   0.299E-02 0.219E-05
CGA:   3    -0.524432979929E+02   -0.68898E-03   -0.68895E-03   512   0.435E-03-0.241E-05
CGA:   4    -0.524433985370E+02   -0.10054E-03   -0.10058E-03   512   0.887E-04 0.257E-06
CGA:   5    -0.524434194969E+02   -0.20960E-04   -0.20966E-04   512   0.203E-04 0.675E-07
CGA:   6    -0.524434249613E+02   -0.54643E-05   -0.54649E-05   512   0.555E-05 0.401E-07
CGA:   7    -0.524434267083E+02   -0.17471E-05   -0.17455E-05   512   0.181E-05 0.327E-07
CGA:   8    -0.524434273257E+02   -0.61734E-06   -0.61537E-06   512   0.576E-06 0.140E-07
CGA:   9    -0.524434275244E+02   -0.19870E-06   -0.19705E-06   512   0.156E-06 0.346E-08
CGA:  10    -0.524434275789E+02   -0.54564E-07   -0.52896E-07   512   0.393E-07 0.536E-08
CGA:  11    -0.524434275931E+02   -0.14223E-07   -0.12811E-07   512   0.112E-07 0.756E-08
CGA:  12    -0.524434275980E+02   -0.48149E-08   -0.37505E-08   512   0.460E-08 0.506E-08
  36 F= -.52443428E+02 E0= -.52443428E+02  d E =-.559750E-14
       N       E                     dE             d eps       ncg     rms          ort
SDA:   1    -0.524313051264E+02    0.12122E-01    0.00000E+00   512   0.231E-01 0.000E+00
CGA:   2    -0.524420972931E+02   -0.10792E-01   -0.10792E-01   512   0.458E-02-0.325E-06
CGA:   3    -0.524432184910E+02   -0.11212E-02   -0.11213E-02   512   0.694E-03-0.421E-06
CGA:   4    -0.524433840566E+02   -0.16557E-03   -0.16559E-03   512   0.138E-03 0.701E-07
CGA:   5    -0.524434162265E+02   -0.32170E-04   -0.32172E-04   512   0.303E-04 0.176E-08
CGA:   6    -0.524434241692E+02   -0.79427E-05   -0.79415E-05   512   0.786E-05 0.226E-08
CGA:   7    -0.524434265753E+02   -0.24062E-05   -0.24047E-05   512   0.243E-05 0.614E-08
CGA:   8    -0.524434273928E+02   -0.81747E-06   -0.81569E-06   512   0.755E-06 0.500E-08
CGA:   9    -0.524434276451E+02   -0.25226E-06   -0.25059E-06   512   0.191E-06 0.489E-08
CGA:  10    -0.524434277094E+02   -0.64361E-07   -0.62748E-07   512   0.400E-07 0.537E-08
CGA:  11    -0.524434277235E+02   -0.14099E-07   -0.12708E-07   512   0.810E-08 0.509E-08
CGA:  12    -0.524434277265E+02   -0.29559E-08   -0.21485E-08   512   0.236E-08 0.355E-08
  37 F= -.52443428E+02 E0= -.52443428E+02  d E =-.783614E-14
       N       E                     dE             d eps       ncg     rms          ort
SDA:   1    -0.523827434271E+02    0.60684E-01    0.00000E+00   512   0.109E+00 0.000E+00
CGA:   2    -0.524305055522E+02   -0.47762E-01   -0.47781E-01   512   0.426E-01-0.113E-03
CGA:   3    -0.524400890434E+02   -0.95835E-02   -0.95851E-02   512   0.618E-02-0.531E-05
CGA:   4    -0.524414582890E+02   -0.13692E-02   -0.13695E-02   512   0.132E-02 0.448E-06
CGA:   5    -0.524417854024E+02   -0.32711E-03   -0.32722E-03   512   0.343E-03 0.171E-05
CGA:   6    -0.524418853130E+02   -0.99911E-04   -0.99909E-04   512   0.108E-03 0.283E-06
CGA:   7    -0.524419199118E+02   -0.34599E-04   -0.34592E-04   512   0.369E-04 0.138E-06
CGA:   8    -0.524419323520E+02   -0.12440E-04   -0.12429E-04   512   0.116E-04 0.213E-06
CGA:   9    -0.524419364401E+02   -0.40881E-05   -0.40853E-05   512   0.343E-05 0.141E-07
CGA:  10    -0.524419377087E+02   -0.12685E-05   -0.12658E-05   512   0.108E-05 0.992E-08
CGA:  11    -0.524419381488E+02   -0.44012E-06   -0.43536E-06   512   0.403E-06 0.262E-07
CGA:  12    -0.524419383365E+02   -0.18767E-06   -0.18518E-06   512   0.169E-06 0.147E-08
CGA:  13    -0.524419384135E+02   -0.77029E-07   -0.74326E-07   512   0.570E-07 0.372E-08
CGA:  14    -0.524419384390E+02   -0.25502E-07   -0.23199E-07   512   0.159E-07 0.474E-08
CGA:  15    -0.524419384468E+02   -0.78398E-08   -0.60748E-08   512   0.430E-08 0.327E-08
  38 F= -.52441938E+02 E0= -.52441938E+02  d E =-.632632E-17
       N       E                     dE             d eps       ncg     rms          ort
SDA:   1    -0.522192869541E+02    0.22265E+00    0.00000E+00   512   0.406E+00 0.000E+00
CGA:   2    -0.523975745558E+02   -0.17829E+00   -0.17822E+00   512   0.164E+00 0.346E-03
CGA:   3    -0.524346977647E+02   -0.37123E-01   -0.37105E-01   512   0.238E-01 0.577E-04
CGA:   4    -0.524399357212E+02   -0.52380E-02   -0.52388E-02   512   0.523E-02 0.419E-05
CGA:   5    -0.524412482836E+02   -0.13126E-02   -0.13125E-02   512   0.143E-02-0.315E-05
CGA:   6    -0.524416699691E+02   -0.42169E-03   -0.42169E-03   512   0.467E-03-0.706E-06
CGA:   7    -0.524418176332E+02   -0.14766E-03   -0.14766E-03   512   0.156E-03 0.108E-06
CGA:   8    -0.524418694439E+02   -0.51811E-04   -0.51805E-04   512   0.472E-04 0.139E-06
CGA:   9    -0.524418855590E+02   -0.16115E-04   -0.16104E-04   512   0.132E-04 0.342E-06
CGA:  10    -0.524418903569E+02   -0.47978E-05   -0.47886E-05   512   0.405E-05 0.166E-06
CGA:  11    -0.524418920334E+02   -0.16765E-05   -0.16754E-05   512   0.157E-05-0.447E-08
CGA:  12    -0.524418927303E+02   -0.69688E-06   -0.69594E-06   512   0.644E-06-0.558E-08
CGA:  13    -0.524418930218E+02   -0.29155E-06   -0.29087E-06   512   0.237E-06-0.729E-08
CGA:  14    -0.524418931252E+02   -0.10337E-06   -0.10216E-06   512   0.733E-07-0.268E-08
CGA:  15    -0.524418931545E+02   -0.29355E-07   -0.27883E-07   512   0.186E-07 0.572E-08
CGA:  16    -0.524418931639E+02   -0.93223E-08   -0.79283E-08   512   0.551E-08 0.161E-08
  39 F= -.52441893E+02 E0= -.52441893E+02  d E =-.297559E-69
       N       E                     dE             d eps       ncg     rms          ort
SDA:   1    -0.523343512342E+02    0.10754E+00    0.00000E+00   512   0.196E+00 0.000E+00
CGA:   2    -0.524203518842E+02   -0.86001E-01   -0.85996E-01   512   0.798E-01-0.190E-05
CGA:   3    -0.524387145714E+02   -0.18363E-01   -0.18362E-01   512   0.111E-01 0.160E-04
CGA:   4    -0.524411978211E+02   -0.24832E-02   -0.24838E-02   512   0.237E-02-0.131E-06
CGA:   5    -0.524418052007E+02   -0.60738E-03   -0.60741E-03   512   0.676E-03-0.103E-05
CGA:   6    -0.524420069477E+02   -0.20175E-03   -0.20175E-03   512   0.222E-03-0.192E-06
CGA:   7    -0.524420781299E+02   -0.71182E-04   -0.71181E-04   512   0.741E-04 0.788E-07
CGA:   8    -0.524421029594E+02   -0.24830E-04   -0.24827E-04   512   0.230E-04 0.111E-06
CGA:   9    -0.524421109916E+02   -0.80322E-05   -0.80278E-05   512   0.688E-05 0.136E-06
CGA:  10    -0.524421135986E+02   -0.26070E-05   -0.26026E-05   512   0.234E-05 0.595E-07
CGA:  11    -0.524421146059E+02   -0.10073E-05   -0.10051E-05   512   0.953E-06 0.275E-08
CGA:  12    -0.524421150356E+02   -0.42967E-06   -0.42801E-06   512   0.379E-06-0.307E-08
CGA:  13    -0.524421152023E+02   -0.16673E-06   -0.16500E-06   512   0.127E-06-0.205E-08
CGA:  14    -0.524421152564E+02   -0.54139E-07   -0.52193E-07   512   0.349E-07 0.334E-08
CGA:  15    -0.524421152711E+02   -0.14648E-07   -0.13078E-07   512   0.871E-08 0.491E-08
CGA:  16    -0.524421152751E+02   -0.40600E-08   -0.29682E-08   512   0.263E-08 0.311E-08
  40 F= -.52442115E+02 E0= -.52442115E+02  d E =-.402075E-57
       N       E                     dE             d eps       ncg     rms          ort
SDA:   1    -0.522036836745E+02    0.23843E+00    0.00000E+00   512   0.446E+00 0.000E+00
CGA:   2    -0.523950232483E+02   -0.19134E+00   -0.19149E+00   512   0.175E+00-0.126E-02
CGA:   3    -0.524342267476E+02   -0.39203E-01   -0.39246E-01   512   0.268E-01-0.405E-04
CGA:   4    -0.524401260083E+02   -0.58993E-02   -0.59003E-02   512   0.574E-02-0.270E-05
CGA:   5    -0.524415182480E+02   -0.13922E-02   -0.13927E-02   512   0.142E-02 0.378E-05
CGA:   6    -0.524419320642E+02   -0.41382E-03   -0.41388E-03   512   0.441E-03 0.853E-06
CGA:   7    -0.524420721053E+02   -0.14004E-03   -0.14005E-03   512   0.149E-03 0.405E-06
CGA:   8    -0.524421222998E+02   -0.50194E-04   -0.50186E-04   512   0.462E-04 0.689E-06
CGA:   9    -0.524421384837E+02   -0.16184E-04   -0.16179E-04   512   0.131E-04 0.169E-06
CGA:  10    -0.524421431783E+02   -0.46946E-05   -0.46916E-05   512   0.376E-05 0.521E-07
CGA:  11    -0.524421446327E+02   -0.14544E-05   -0.14492E-05   512   0.128E-05 0.666E-07
CGA:  12    -0.524421452119E+02   -0.57918E-06   -0.57696E-06   512   0.533E-06 0.333E-08
CGA:  13    -0.524421454593E+02   -0.24746E-06   -0.24618E-06   512   0.202E-06-0.436E-08
CGA:  14    -0.524421455482E+02   -0.88927E-07   -0.87162E-07   512   0.634E-07 0.573E-09
CGA:  15    -0.524421455775E+02   -0.29240E-07   -0.27681E-07   512   0.196E-07-0.133E-08
CGA:  16    -0.524421455852E+02   -0.77434E-08   -0.65284E-08   512   0.512E-08 0.389E-08
  41 F= -.52442146E+02 E0= -.52442146E+02  d E =-.120656E-19
       N       E                     dE             d eps       ncg     rms          ort
SDA:   1    -0.523328933628E+02    0.10925E+00    0.00000E+00   512   0.204E+00 0.000E+00
CGA:   2    -0.524234225191E+02   -0.90529E-01   -0.90502E-01   512   0.711E-01 0.186E-03
CGA:   3    -0.524393491194E+02   -0.15927E-01   -0.15916E-01   512   0.129E-01 0.302E-04
CGA:   4    -0.524421867818E+02   -0.28377E-02   -0.28381E-02   512   0.296E-02 0.650E-08
CGA:   5    -0.524429232571E+02   -0.73648E-03   -0.73643E-03   512   0.779E-03-0.270E-05
CGA:   6    -0.524431510249E+02   -0.22777E-03   -0.22777E-03   512   0.250E-03-0.197E-06
CGA:   7    -0.524432286365E+02   -0.77612E-04   -0.77616E-04   512   0.781E-04 0.191E-06
CGA:   8    -0.524432534093E+02   -0.24773E-04   -0.24771E-04   512   0.204E-04-0.205E-07
CGA:   9    -0.524432600458E+02   -0.66365E-05   -0.66360E-05   512   0.499E-05 0.170E-06
CGA:  10    -0.524432617981E+02   -0.17523E-05   -0.17491E-05   512   0.145E-05 0.994E-07
CGA:  11    -0.524432624012E+02   -0.60314E-06   -0.60171E-06   512   0.575E-06-0.116E-08
CGA:  12    -0.524432626582E+02   -0.25696E-06   -0.25471E-06   512   0.234E-06 0.591E-08
CGA:  13    -0.524432627661E+02   -0.10795E-06   -0.10607E-06   512   0.866E-07 0.197E-08
CGA:  14    -0.524432628061E+02   -0.39998E-07   -0.38528E-07   512   0.285E-07-0.134E-08
CGA:  15    -0.524432628180E+02   -0.11851E-07   -0.10432E-07   512   0.756E-08 0.358E-08
CGA:  16    -0.524432628218E+02   -0.38526E-08   -0.27556E-08   512   0.234E-08 0.220E-08
  42 F= -.52443263E+02 E0= -.52443263E+02  d E =-.521451E-14
       N       E                     dE             d eps       ncg     rms          ort
SDA:   1    -0.522345804862E+02    0.20868E+00    0.00000E+00   512   0.387E+00 0.000E+00
CGA:   2    -0.524087584214E+02   -0.17418E+00   -0.17435E+00   512   0.119E+00-0.117E-02
CGA:   3    -0.524354167243E+02   -0.26658E-01   -0.26649E-01   512   0.264E-01 0.221E-04
CGA:   4    -0.524410930240E+02   -0.56763E-02   -0.56775E-02   512   0.575E-02-0.297E-06
CGA:   5    -0.524425868061E+02   -0.14938E-02   -0.14940E-02   512   0.157E-02 0.267E-06
CGA:   6    -0.524430418418E+02   -0.45504E-03   -0.45504E-03   512   0.514E-03-0.289E-06
CGA:   7    -0.524432015228E+02   -0.15968E-03   -0.15969E-03   512   0.149E-03 0.756E-07
CGA:   8    -0.524432479479E+02   -0.46425E-04   -0.46429E-04   512   0.362E-04 0.279E-06
CGA:   9    -0.524432593542E+02   -0.11406E-04   -0.11408E-04   512   0.816E-05 0.174E-06
CGA:  10    -0.524432621627E+02   -0.28085E-05   -0.28058E-05   512   0.221E-05 0.877E-07
CGA:  11    -0.524432630528E+02   -0.89012E-06   -0.88581E-06   512   0.836E-06 0.402E-07
CGA:  12    -0.524432634349E+02   -0.38208E-06   -0.37863E-06   512   0.346E-06 0.146E-07
CGA:  13    -0.524432635901E+02   -0.15518E-06   -0.15349E-06   512   0.118E-06-0.198E-09
CGA:  14    -0.524432636397E+02   -0.49578E-07   -0.48017E-07   512   0.344E-07-0.910E-10
CGA:  15    -0.524432636549E+02   -0.15263E-07   -0.13722E-07   512   0.986E-08 0.494E-09
CGA:  16    -0.524432636601E+02   -0.51496E-08   -0.37153E-08   512   0.267E-08 0.118E-08
  43 F= -.52443264E+02 E0= -.52443264E+02  d E =-.848187E-14
       N       E                     dE             d eps       ncg     rms          ort
SDA:   1    -0.523285454675E+02    0.11472E+00    0.00000E+00   512   0.212E+00 0.000E+00
CGA:   2    -0.524221108559E+02   -0.93565E-01   -0.93552E-01   512   0.733E-01 0.925E-04
CGA:   3    -0.524383567497E+02   -0.16246E-01   -0.16235E-01   512   0.133E-01 0.393E-04
CGA:   4    -0.524412634555E+02   -0.29067E-02   -0.29072E-02   512   0.293E-02 0.851E-06
CGA:   5    -0.524419781832E+02   -0.71473E-03   -0.71464E-03   512   0.732E-03-0.307E-05
CGA:   6    -0.524421882154E+02   -0.21003E-03   -0.21003E-03   512   0.227E-03-0.270E-06
CGA:   7    -0.524422583953E+02   -0.70180E-04   -0.70183E-04   512   0.710E-04 0.154E-06
CGA:   8    -0.524422810726E+02   -0.22677E-04   -0.22676E-04   512   0.188E-04-0.558E-07
CGA:   9    -0.524422871633E+02   -0.60906E-05   -0.60900E-05   512   0.450E-05 0.177E-06
CGA:  10    -0.524422887055E+02   -0.15422E-05   -0.15397E-05   512   0.121E-05 0.101E-06
CGA:  11    -0.524422891972E+02   -0.49170E-06   -0.49020E-06   512   0.456E-06-0.968E-09
CGA:  12    -0.524422894013E+02   -0.20411E-06   -0.20189E-06   512   0.191E-06 0.454E-08
CGA:  13    -0.524422894906E+02   -0.89271E-07   -0.87154E-07   512   0.718E-07 0.321E-08
CGA:  14    -0.524422895244E+02   -0.33884E-07   -0.32376E-07   512   0.237E-07-0.865E-09
CGA:  15    -0.524422895342E+02   -0.97461E-08   -0.83991E-08   512   0.605E-08 0.343E-08
  44 F= -.52442290E+02 E0= -.52442290E+02  d E =-.133036E-51
       N       E                     dE             d eps       ncg     rms          ort
SDA:   1    -0.521945135624E+02    0.24778E+00    0.00000E+00   512   0.467E+00 0.000E+00
CGA:   2    -0.523939547728E+02   -0.19944E+00   -0.19961E+00   512   0.181E+00-0.149E-02
CGA:   3    -0.524338767954E+02   -0.39922E-01   -0.39987E-01   512   0.287E-01-0.801E-04
CGA:   4    -0.524401523826E+02   -0.62756E-02   -0.62770E-02   512   0.622E-02-0.598E-05
CGA:   5    -0.524416500701E+02   -0.14977E-02   -0.14982E-02   512   0.150E-02 0.445E-05
CGA:   6    -0.524420848680E+02   -0.43480E-03   -0.43488E-03   512   0.460E-03 0.113E-05
CGA:   7    -0.524422288085E+02   -0.14394E-03   -0.14395E-03   512   0.151E-03 0.361E-06
CGA:   8    -0.524422786238E+02   -0.49815E-04   -0.49813E-04   512   0.442E-04 0.735E-06
CGA:   9    -0.524422937603E+02   -0.15137E-04   -0.15133E-04   512   0.116E-04 0.203E-06
CGA:  10    -0.524422977758E+02   -0.40155E-05   -0.40134E-05   512   0.296E-05 0.450E-07
CGA:  11    -0.524422988523E+02   -0.10764E-05   -0.10727E-05   512   0.865E-06 0.762E-07
CGA:  12    -0.524422992217E+02   -0.36945E-06   -0.36570E-06   512   0.320E-06 0.260E-07
CGA:  13    -0.524422993700E+02   -0.14828E-06   -0.14569E-06   512   0.118E-06 0.768E-08
CGA:  14    -0.524422994222E+02   -0.52238E-07   -0.50156E-07   512   0.373E-07 0.617E-08
CGA:  15    -0.524422994397E+02   -0.17490E-07   -0.15787E-07   512   0.117E-07 0.197E-08
CGA:  16    -0.524422994450E+02   -0.52605E-08   -0.40425E-08   512   0.353E-08 0.285E-08
  45 F= -.52442299E+02 E0= -.52442299E+02  d E =-.113636E-20
       N       E                     dE             d eps       ncg     rms          ort
SDA:   1    -0.523261460055E+02    0.11615E+00    0.00000E+00   512   0.213E+00 0.000E+00
CGA:   2    -0.524192335747E+02   -0.93088E-01   -0.93052E-01   512   0.837E-01 0.231E-03
CGA:   3    -0.524380417841E+02   -0.18808E-01   -0.18798E-01   512   0.125E-01 0.379E-04
CGA:   4    -0.524407786470E+02   -0.27369E-02   -0.27373E-02   512   0.272E-02 0.103E-05
CGA:   5    -0.524414427739E+02   -0.66413E-03   -0.66403E-03   512   0.697E-03-0.292E-05
CGA:   6    -0.524416440107E+02   -0.20124E-03   -0.20123E-03   512   0.220E-03-0.559E-06
CGA:   7    -0.524417132340E+02   -0.69223E-04   -0.69223E-04   512   0.740E-04 0.368E-07
CGA:   8    -0.524417379127E+02   -0.24679E-04   -0.24677E-04   512   0.226E-04-0.242E-08
CGA:   9    -0.524417456243E+02   -0.77116E-05   -0.77068E-05   512   0.627E-05 0.208E-06
CGA:  10    -0.524417478625E+02   -0.22382E-05   -0.22338E-05   512   0.184E-05 0.108E-06
CGA:  11    -0.524417486104E+02   -0.74787E-06   -0.74662E-06   512   0.684E-06-0.740E-08
CGA:  12    -0.524417489100E+02   -0.29967E-06   -0.29830E-06   512   0.276E-06-0.808E-10
CGA:  13    -0.524417490368E+02   -0.12675E-06   -0.12491E-06   512   0.103E-06-0.515E-09
CGA:  14    -0.524417490833E+02   -0.46477E-07   -0.44684E-07   512   0.325E-07 0.546E-09
CGA:  15    -0.524417490963E+02   -0.13037E-07   -0.11606E-07   512   0.831E-08 0.523E-08
CGA:  16    -0.524417491007E+02   -0.43674E-08   -0.31271E-08   512   0.263E-08 0.245E-08
  46 F= -.52441749E+02 E0= -.52441749E+02  d E =-.554434E-12
       N       E                     dE             d eps       ncg     rms          ort
SDA:   1    -0.522272745209E+02    0.21447E+00    0.00000E+00   512   0.390E+00 0.000E+00
CGA:   2    -0.523989660457E+02   -0.17169E+00   -0.17174E+00   512   0.158E+00-0.363E-03
CGA:   3    -0.524350152203E+02   -0.36049E-01   -0.36051E-01   512   0.220E-01 0.261E-04
CGA:   4    -0.524399285039E+02   -0.49133E-02   -0.49140E-02   512   0.469E-02 0.432E-06
CGA:   5    -0.524411385118E+02   -0.12100E-02   -0.12102E-02   512   0.134E-02-0.295E-06
CGA:   6    -0.524415384216E+02   -0.39991E-03   -0.39993E-03   512   0.441E-03-0.168E-06
CGA:   7    -0.524416801484E+02   -0.14173E-03   -0.14173E-03   512   0.149E-03 0.207E-06
CGA:   8    -0.524417302461E+02   -0.50098E-04   -0.50093E-04   512   0.466E-04 0.309E-06
CGA:   9    -0.524417466436E+02   -0.16398E-04   -0.16391E-04   512   0.140E-04 0.187E-06
CGA:  10    -0.524417519584E+02   -0.53148E-05   -0.53085E-05   512   0.475E-05 0.911E-07
CGA:  11    -0.524417539773E+02   -0.20189E-05   -0.20149E-05   512   0.190E-05 0.189E-07
CGA:  12    -0.524417548318E+02   -0.85450E-06   -0.85417E-06   512   0.758E-06-0.161E-07
CGA:  13    -0.524417551626E+02   -0.33085E-06   -0.32960E-06   512   0.253E-06-0.829E-08
CGA:  14    -0.524417552703E+02   -0.10765E-06   -0.10572E-06   512   0.717E-07 0.350E-09
CGA:  15    -0.524417553006E+02   -0.30312E-07   -0.28386E-07   512   0.182E-07 0.424E-08
CGA:  16    -0.524417553086E+02   -0.79908E-08   -0.65503E-08   512   0.487E-08 0.411E-08
  47 F= -.52441755E+02 E0= -.52441755E+02  d E =-.282970E-13
       N       E                     dE             d eps       ncg     rms          ort
SDA:   1    -0.523376686374E+02    0.10409E+00    0.00000E+00   512   0.194E+00 0.000E+00
CGA:   2    -0.524241646450E+02   -0.86496E-01   -0.86515E-01   512   0.682E-01-0.139E-03
CGA:   3    -0.524396361916E+02   -0.15472E-01   -0.15470E-01   512   0.119E-01 0.116E-04
CGA:   4    -0.524422530651E+02   -0.26169E-02   -0.26174E-02   512   0.271E-02-0.413E-06
CGA:   5    -0.524429398772E+02   -0.68681E-03   -0.68691E-03   512   0.729E-03-0.350E-06
CGA:   6    -0.524431547814E+02   -0.21490E-03   -0.21491E-03   512   0.236E-03-0.417E-07
CGA:   7    -0.524432288484E+02   -0.74067E-04   -0.74068E-04   512   0.746E-04 0.102E-06
CGA:   8    -0.524432527715E+02   -0.23923E-04   -0.23924E-04   512   0.204E-04 0.147E-06
CGA:   9    -0.524432596069E+02   -0.68354E-05   -0.68336E-05   512   0.547E-05 0.108E-06
CGA:  10    -0.524432616256E+02   -0.20187E-05   -0.20153E-05   512   0.179E-05 0.543E-07
CGA:  11    -0.524432623873E+02   -0.76173E-06   -0.75863E-06   512   0.742E-06 0.178E-07
CGA:  12    -0.524432627266E+02   -0.33923E-06   -0.33725E-06   512   0.305E-06 0.280E-08
CGA:  13    -0.524432628631E+02   -0.13655E-06   -0.13502E-06   512   0.105E-06-0.411E-09
CGA:  14    -0.524432629089E+02   -0.45795E-07   -0.44252E-07   512   0.311E-07 0.873E-09
CGA:  15    -0.524432629228E+02   -0.13933E-07   -0.12452E-07   512   0.840E-08 0.223E-08
CGA:  16    -0.524432629268E+02   -0.39927E-08   -0.29364E-08   512   0.235E-08 0.229E-08
  48 F= -.52443263E+02 E0= -.52443263E+02  d E =-.567855E-14
       N       E                     dE             d eps       ncg     rms          ort
SDA:   1    -0.522346272554E+02    0.20864E+00    0.00000E+00   512   0.387E+00 0.000E+00
CGA:   2    -0.524088509695E+02   -0.17422E+00   -0.17440E+00   512   0.118E+00-0.117E-02
CGA:   3    -0.524354350232E+02   -0.26584E-01   -0.26575E-01   512   0.263E-01 0.217E-04
CGA:   4    -0.524410942855E+02   -0.56593E-02   -0.56604E-02   512   0.574E-02-0.674E-06
CGA:   5    -0.524425865629E+02   -0.14923E-02   -0.14925E-02   512   0.157E-02 0.229E-06
CGA:   6    -0.524430414362E+02   -0.45487E-03   -0.45488E-03   512   0.515E-03-0.296E-06
CGA:   7    -0.524432012667E+02   -0.15983E-03   -0.15984E-03   512   0.149E-03 0.779E-07
CGA:   8    -0.524432477278E+02   -0.46461E-04   -0.46466E-04   512   0.362E-04 0.280E-06
CGA:   9    -0.524432591266E+02   -0.11399E-04   -0.11400E-04   512   0.816E-05 0.173E-06
CGA:  10    -0.524432619368E+02   -0.28103E-05   -0.28078E-05   512   0.222E-05 0.877E-07
CGA:  11    -0.524432628301E+02   -0.89325E-06   -0.88912E-06   512   0.838E-06 0.406E-07
CGA:  12    -0.524432632135E+02   -0.38344E-06   -0.38023E-06   512   0.345E-06 0.140E-07
CGA:  13    -0.524432633688E+02   -0.15533E-06   -0.15388E-06   512   0.118E-06-0.685E-09
CGA:  14    -0.524432634186E+02   -0.49768E-07   -0.48414E-07   512   0.347E-07-0.100E-08
CGA:  15    -0.524432634337E+02   -0.15099E-07   -0.13682E-07   512   0.984E-08 0.283E-09
CGA:  16    -0.524432634389E+02   -0.51732E-08   -0.38208E-08   512   0.269E-08 0.833E-09
  49 F= -.52443263E+02 E0= -.52443263E+02  d E =-.778490E-14
       N       E                     dE             d eps       ncg     rms          ort
SDA:   1    -0.523344170867E+02    0.10885E+00    0.00000E+00   512   0.198E+00 0.000E+00
CGA:   2    -0.524223127405E+02   -0.87896E-01   -0.87922E-01   512   0.707E-01-0.197E-03
CGA:   3    -0.524381763769E+02   -0.15864E-01   -0.15869E-01   512   0.123E-01-0.817E-05
CGA:   4    -0.524408830728E+02   -0.27067E-02   -0.27072E-02   512   0.273E-02-0.850E-06
CGA:   5    -0.524415666446E+02   -0.68357E-03   -0.68378E-03   512   0.715E-03 0.112E-05
CGA:   6    -0.524417753032E+02   -0.20866E-03   -0.20867E-03   512   0.228E-03 0.588E-08
CGA:   7    -0.524418470314E+02   -0.71728E-04   -0.71729E-04   512   0.722E-04 0.837E-07
CGA:   8    -0.524418702437E+02   -0.23212E-04   -0.23213E-04   512   0.197E-04 0.248E-06
CGA:   9    -0.524418768823E+02   -0.66386E-05   -0.66369E-05   512   0.528E-05 0.558E-07
CGA:  10    -0.524418788157E+02   -0.19334E-05   -0.19308E-05   512   0.170E-05 0.305E-07
CGA:  11    -0.524418795223E+02   -0.70668E-06   -0.70230E-06   512   0.682E-06 0.341E-07
CGA:  12    -0.524418798408E+02   -0.31848E-06   -0.31635E-06   512   0.288E-06 0.227E-08
CGA:  13    -0.524418799692E+02   -0.12839E-06   -0.12651E-06   512   0.962E-07 0.151E-08
CGA:  14    -0.524418800108E+02   -0.41562E-07   -0.39768E-07   512   0.275E-07 0.306E-08
CGA:  15    -0.524418800241E+02   -0.13286E-07   -0.11642E-07   512   0.794E-08 0.110E-08
CGA:  16    -0.524418800277E+02   -0.36143E-08   -0.25351E-08   512   0.223E-08 0.243E-08
  50 F= -.52441880E+02 E0= -.52441880E+02  d E =-.193670E-16
       N       E                     dE             d eps       ncg     rms          ort
SDA:   1    -0.522222471485E+02    0.21963E+00    0.00000E+00   512   0.400E+00 0.000E+00
CGA:   2    -0.523973931889E+02   -0.17515E+00   -0.17511E+00   512   0.163E+00 0.192E-03
CGA:   3    -0.524347378777E+02   -0.37345E-01   -0.37330E-01   512   0.234E-01 0.684E-04
CGA:   4    -0.524399090556E+02   -0.51712E-02   -0.51722E-02   512   0.508E-02 0.341E-05
CGA:   5    -0.524411948975E+02   -0.12858E-02   -0.12858E-02   512   0.142E-02-0.263E-05
CGA:   6    -0.524416154120E+02   -0.42051E-03   -0.42052E-03   512   0.465E-03-0.627E-06
CGA:   7    -0.524417631352E+02   -0.14772E-03   -0.14772E-03   512   0.155E-03 0.747E-07
CGA:   8    -0.524418147018E+02   -0.51567E-04   -0.51564E-04   512   0.471E-04 0.153E-06
CGA:   9    -0.524418308936E+02   -0.16192E-04   -0.16186E-04   512   0.134E-04 0.305E-06
CGA:  10    -0.524418358249E+02   -0.49313E-05   -0.49246E-05   512   0.425E-05 0.142E-06
CGA:  11    -0.524418376028E+02   -0.17779E-05   -0.17762E-05   512   0.167E-05-0.193E-08
CGA:  12    -0.524418383526E+02   -0.74976E-06   -0.74844E-06   512   0.688E-06-0.636E-08
CGA:  13    -0.524418386613E+02   -0.30875E-06   -0.30761E-06   512   0.248E-06-0.737E-08
CGA:  14    -0.524418387685E+02   -0.10717E-06   -0.10541E-06   512   0.740E-07-0.517E-09
CGA:  15    -0.524418387985E+02   -0.29984E-07   -0.28221E-07   512   0.186E-07 0.631E-08
CGA:  16    -0.524418388075E+02   -0.90804E-08   -0.74934E-08   512   0.524E-08 0.281E-08
  51 F= -.52441839E+02 E0= -.52441839E+02  d E =-.953549E-72
       N       E                     dE             d eps       ncg     rms          ort
SDA:   1    -0.523199466239E+02    0.12189E+00    0.00000E+00   512   0.230E+00 0.000E+00
CGA:   2    -0.524180708989E+02   -0.98124E-01   -0.98175E-01   512   0.900E-01-0.465E-03
CGA:   3    -0.524381043976E+02   -0.20033E-01   -0.20053E-01   512   0.141E-01-0.354E-04
CGA:   4    -0.524411641819E+02   -0.30598E-02   -0.30605E-02   512   0.301E-02-0.209E-05
CGA:   5    -0.524418868685E+02   -0.72269E-03   -0.72312E-03   512   0.725E-03 0.325E-05
CGA:   6    -0.524420954992E+02   -0.20863E-03   -0.20868E-03   512   0.220E-03 0.787E-06
CGA:   7    -0.524421644352E+02   -0.68936E-04   -0.68941E-04   512   0.726E-04 0.222E-06
CGA:   8    -0.524421885550E+02   -0.24120E-04   -0.24119E-04   512   0.219E-04 0.436E-06
CGA:   9    -0.524421961249E+02   -0.75699E-05   -0.75674E-05   512   0.600E-05 0.853E-07
CGA:  10    -0.524421982396E+02   -0.21147E-05   -0.21131E-05   512   0.163E-05 0.120E-07
CGA:  11    -0.524421988469E+02   -0.60730E-06   -0.60410E-06   512   0.514E-06 0.487E-07
CGA:  12    -0.524421990741E+02   -0.22729E-06   -0.22420E-06   512   0.203E-06 0.157E-07
CGA:  13    -0.524421991711E+02   -0.96921E-07   -0.94623E-07   512   0.777E-07 0.475E-08
CGA:  14    -0.524421992062E+02   -0.35108E-07   -0.33160E-07   512   0.249E-07 0.482E-08
CGA:  15    -0.524421992186E+02   -0.12395E-07   -0.10754E-07   512   0.781E-08 0.174E-08
CGA:  16    -0.524421992220E+02   -0.34488E-08   -0.24842E-08   512   0.244E-08 0.275E-08
  52 F= -.52442199E+02 E0= -.52442199E+02  d E =-.668884E-20
       N       E                     dE             d eps       ncg     rms          ort
SDA:   1    -0.522031744678E+02    0.23902E+00    0.00000E+00   512   0.443E+00 0.000E+00
CGA:   2    -0.523955103342E+02   -0.19234E+00   -0.19223E+00   512   0.173E+00 0.726E-03
CGA:   3    -0.524343857759E+02   -0.38875E-01   -0.38836E-01   512   0.267E-01 0.108E-03
CGA:   4    -0.524401702212E+02   -0.57844E-02   -0.57851E-02   512   0.578E-02 0.835E-05
CGA:   5    -0.524415603841E+02   -0.13902E-02   -0.13901E-02   512   0.142E-02-0.443E-05
CGA:   6    -0.524419675968E+02   -0.40721E-03   -0.40721E-03   512   0.440E-03-0.921E-06
CGA:   7    -0.524421043362E+02   -0.13674E-03   -0.13675E-03   512   0.147E-03 0.282E-06
CGA:   8    -0.524421532908E+02   -0.48955E-04   -0.48951E-04   512   0.452E-04 0.133E-06
CGA:   9    -0.524421686897E+02   -0.15399E-04   -0.15391E-04   512   0.124E-04 0.389E-06
CGA:  10    -0.524421730533E+02   -0.43637E-05   -0.43574E-05   512   0.347E-05 0.215E-06
CGA:  11    -0.524421744225E+02   -0.13692E-05   -0.13676E-05   512   0.120E-05-0.135E-08
CGA:  12    -0.524421749443E+02   -0.52180E-06   -0.52050E-06   512   0.478E-06-0.535E-08
CGA:  13    -0.524421751613E+02   -0.21698E-06   -0.21549E-06   512   0.181E-06-0.359E-08
CGA:  14    -0.524421752429E+02   -0.81567E-07   -0.79985E-07   512   0.606E-07-0.212E-08
CGA:  15    -0.524421752684E+02   -0.25524E-07   -0.23758E-07   512   0.168E-07 0.398E-08
CGA:  16    -0.524421752771E+02   -0.87057E-08   -0.70976E-08   512   0.518E-08 0.176E-08
  53 F= -.52442175E+02 E0= -.52442175E+02  d E =-.285012E-55
       N       E                     dE             d eps       ncg     rms          ort
SDA:   1    -0.523300585934E+02    0.11212E+00    0.00000E+00   512   0.212E+00 0.000E+00
CGA:   2    -0.524225192442E+02   -0.92461E-01   -0.92524E-01   512   0.754E-01-0.526E-03
CGA:   3    -0.524393223437E+02   -0.16803E-01   -0.16815E-01   512   0.134E-01-0.191E-04
CGA:   4    -0.524422434510E+02   -0.29211E-02   -0.29218E-02   512   0.293E-02-0.144E-05
CGA:   5    -0.524429559703E+02   -0.71252E-03   -0.71286E-03   512   0.714E-03 0.247E-05
CGA:   6    -0.524431627393E+02   -0.20677E-03   -0.20680E-03   512   0.219E-03 0.298E-06
CGA:   7    -0.524432312237E+02   -0.68484E-04   -0.68486E-04   512   0.701E-04 0.745E-07
CGA:   8    -0.524432537717E+02   -0.22548E-04   -0.22553E-04   512   0.191E-04 0.375E-06
CGA:   9    -0.524432601835E+02   -0.64119E-05   -0.64107E-05   512   0.483E-05 0.694E-07
CGA:  10    -0.524432618725E+02   -0.16890E-05   -0.16874E-05   512   0.132E-05 0.140E-07
CGA:  11    -0.524432623732E+02   -0.50068E-06   -0.49754E-06   512   0.439E-06 0.457E-07
CGA:  12    -0.524432625722E+02   -0.19906E-06   -0.19610E-06   512   0.181E-06 0.137E-07
CGA:  13    -0.524432626577E+02   -0.85465E-07   -0.83165E-07   512   0.686E-07 0.492E-08
CGA:  14    -0.524432626881E+02   -0.30415E-07   -0.28599E-07   512   0.216E-07 0.552E-08
CGA:  15    -0.524432626992E+02   -0.11125E-07   -0.95458E-08   512   0.692E-08 0.152E-08
CGA:  16    -0.524432627027E+02   -0.34906E-08   -0.23761E-08   512   0.201E-08 0.201E-08
  54 F= -.52443263E+02 E0= -.52443263E+02  d E =-.507760E-14
       N       E                     dE             d eps       ncg     rms          ort
SDA:   1    -0.522346427640E+02    0.20862E+00    0.00000E+00   512   0.387E+00 0.000E+00
CGA:   2    -0.524087175051E+02   -0.17407E+00   -0.17425E+00   512   0.119E+00-0.118E-02
CGA:   3    -0.524354331806E+02   -0.26716E-01   -0.26706E-01   512   0.263E-01 0.203E-04
CGA:   4    -0.524410927829E+02   -0.56596E-02   -0.56607E-02   512   0.575E-02-0.381E-06
CGA:   5    -0.524425868599E+02   -0.14941E-02   -0.14943E-02   512   0.157E-02 0.254E-06
CGA:   6    -0.524430420282E+02   -0.45517E-03   -0.45517E-03   512   0.514E-03-0.309E-06
CGA:   7    -0.524432016069E+02   -0.15958E-03   -0.15958E-03   512   0.149E-03 0.818E-07
CGA:   8    -0.524432480234E+02   -0.46416E-04   -0.46420E-04   512   0.363E-04 0.279E-06
CGA:   9    -0.524432594343E+02   -0.11411E-04   -0.11412E-04   512   0.817E-05 0.174E-06
CGA:  10    -0.524432622476E+02   -0.28133E-05   -0.28105E-05   512   0.222E-05 0.887E-07
CGA:  11    -0.524432631420E+02   -0.89438E-06   -0.89007E-06   512   0.841E-06 0.402E-07
CGA:  12    -0.524432635266E+02   -0.38462E-06   -0.38138E-06   512   0.349E-06 0.139E-07
CGA:  13    -0.524432636826E+02   -0.15599E-06   -0.15429E-06   512   0.119E-06-0.137E-09
CGA:  14    -0.524432637324E+02   -0.49842E-07   -0.48328E-07   512   0.347E-07-0.352E-09
CGA:  15    -0.524432637477E+02   -0.15323E-07   -0.13810E-07   512   0.992E-08 0.431E-09
CGA:  16    -0.524432637530E+02   -0.52296E-08   -0.38138E-08   512   0.271E-08 0.991E-09
  55 F= -.52443264E+02 E0= -.52443264E+02  d E =-.830828E-14
