       N       E                     dE             d eps       ncg     rms          ort
DAV:   1     0.186530183958E+05    0.18653E+05   -0.11730E+06   896   0.254E+03
DAV:   2     0.604686543469E+03   -0.18048E+05   -0.17294E+05   896   0.416E+02
DAV:   3    -0.233075261808E+04   -0.29354E+04   -0.29026E+04   896   0.181E+02
DAV:   4    -0.246403452850E+04   -0.13328E+03   -0.13239E+03   896   0.392E+01
DAV:   5    -0.246995305339E+04   -0.59185E+01   -0.59146E+01   896   0.781E+00
SDA:   6    -0.194412326958E+04    0.52583E+03   -0.59146E+01   896   0.148E+04 0.000E+00
CGA:   7    -0.219272187597E+04   -0.24860E+03   -0.24745E+03   896   0.104E+03-0.751E+01
CGA:   8    -0.222035260899E+04   -0.27631E+02   -0.27524E+02   896   0.247E+02 0.112E+01
CGA:   9    -0.222911987875E+04   -0.87673E+01   -0.88098E+01   896   0.802E+01-0.295E+00
CGA:  10    -0.223191346496E+04   -0.27936E+01   -0.28077E+01   896   0.225E+01-0.841E-01
CGA:  11    -0.223269183710E+04   -0.77837E+00   -0.77928E+00   896   0.549E+00-0.557E-02
CGA:  12    -0.223288137050E+04   -0.18953E+00   -0.18965E+00   896   0.131E+00-0.892E-03
CGA:  13    -0.223292949661E+04   -0.48126E-01   -0.48142E-01   896   0.369E-01-0.133E-03
CGA:  14    -0.223294301273E+04   -0.13516E-01   -0.13547E-01   896   0.119E-01-0.239E-03
CGA:  15    -0.223294778376E+04   -0.47710E-02   -0.47768E-02   896   0.410E-02-0.351E-04
CGA:  16    -0.223294960075E+04   -0.18170E-02   -0.18153E-02   896   0.146E-02 0.870E-05
CGA:  17    -0.223295025141E+04   -0.65066E-03   -0.64876E-03   896   0.486E-03 0.105E-04
CGA:  18    -0.223295047489E+04   -0.22348E-03   -0.22985E-03   896   0.177E-03-0.318E-04
CGA:  19    -0.223295054097E+04   -0.66080E-04   -0.66189E-04   896   0.596E-04-0.908E-06
CGA:  20    -0.223295056381E+04   -0.22843E-04   -0.23044E-04   896   0.204E-04-0.196E-05
CGA:  21    -0.223295057194E+04   -0.81210E-05   -0.79933E-05   896   0.560E-05 0.112E-05
CGA:  22    -0.223295057432E+04   -0.23890E-05   -0.23212E-05   896   0.200E-05 0.703E-06
CGA:  23    -0.223295057544E+04   -0.11103E-05   -0.12689E-05   896   0.140E-05-0.607E-06
CGA:  24    -0.223295057571E+04   -0.27812E-06   -0.28222E-06   896   0.553E-06 0.171E-06
CGA:  25    -0.223295057588E+04   -0.16426E-06   -0.16889E-06   896   0.263E-06 0.118E-06
CGA:  26    -0.223295057601E+04   -0.13330E-06   -0.15326E-06   896   0.191E-06-0.119E-06
CGA:  27    -0.223295057602E+04   -0.10186E-07   -0.17147E-07   896   0.137E-06 0.441E-07
CGA:  28    -0.223295057603E+04   -0.89058E-08   -0.22569E-07   896   0.586E-07 0.770E-07
CGA:  29    -0.223295057604E+04   -0.11642E-07   -0.13636E-07   896   0.195E-07 0.315E-07
CGA:  30    -0.223295057605E+04   -0.58208E-08   -0.58209E-08   896   0.676E-08 0.103E-07
   1 F= -.22329506E+04 E0= -.22329506E+04  d E =-.128338E-18
