 vasp.6.4.1 05Apr23 (build Jun  6 2023 14:46:38) gamma-only                      
 executed on        HPECrayEX_GCC date 2024.07.22  11:02:54
 running  512 mpi-ranks, with    1 threads/rank, on    4 nodes
 distrk:  each k-point on  512 cores,    1 groups
 distr:  one band on NCORE=   1 cores,  512 groups


--------------------------------------------------------------------------------------------------------


 INCAR:
   ISMEAR = 0
   SIGMA = 0.01
   PREC = Accurate
   EDIFF = 1E-8
   ENCUT = 1000
   ISIF = 2
   IBRION = 6
   POTIM = 0.008
   NFREE = 2
   EDIFF = 10-7
   GGA = ML
   LUSE_VDW = .TRUE.
   ZAB_VDW = -1.8867
   AGGAC = 0.0000
   LASPH = .TRUE.
   SYMPREC = 1E-7
   ALGO = Conjugate
   LWAVE = .FALSE.
   LCHARG = .FALSE.

 POTCAR:    PAW_PBE C_h 06Feb2004                 
 POTCAR:    PAW_PBE H_h 06Feb2004                 
 POTCAR:    PAW_PBE N_h 06Feb2004                 
 -----------------------------------------------------------------------------
|                                                                             |
|               ----> ADVICE to this user running VASP <----                  |
|                                                                             |
|     You have switched on vdW-DFT.                                           |
|     This routine was written and supplied by Jiri Klimes. We recommend      |
|     that you carefully read and cite the following publications:            |
|       J. Klimes, D.R. Bowler, A. Michelides                                 |
|          J. Phys.: Cond Matt. 22 022201 (2010)                              |
|       J. Klimes, D.R. Bowler, A. Michelides                                 |
|          Phys. Rev. B. 83, 195131 (2011)                                    |
|     and references therein.                                                 |
|                                                                             |
 -----------------------------------------------------------------------------

 POTCAR:    PAW_PBE C_h 06Feb2004                 
   VRHFIN =C: s2p2                                                                                  
   LEXCH  = PE                                                                                      
   EATOM  =   147.1560 eV,   10.8157 Ry                                                             
                                                                                                    
   TITEL  = PAW_PBE C_h 06Feb2004                                                                   
   LULTRA =        F    use ultrasoft PP ?                                                          
   IUNSCR =        1    unscreen: 0-lin 1-nonlin 2-no                                               
   RPACOR =    0.800    partial core radius                                                         
   POMASS =   12.011; ZVAL   =    4.000    mass and valenz                                          
   RCORE  =    1.100    outmost cutoff radius                                                       
   RWIGS  =    1.630; RWIGS  =    0.863    wigner-seitz radius (au A)                               
   ENMAX  =  700.000; ENMIN  =  500.000 eV                                                          
   ICORE  =        2    local potential                                                             
   LCOR   =        T    correct aug charges                                                         
   LPAW   =        T    paw PP                                                                      
   EAUG   =  946.768                                                                                
   DEXC   =    0.000                                                                                
   RMAX   =    1.128    core radius for proj-oper                                                   
   RAUG   =    1.300    factor for augmentation sphere                                              
   RDEP   =    1.162    radius for radial grids                                                     
   RDEPT  =    1.088    core radius for aug-charge                                                  
                                                                                                    
   Atomic configuration                                                                             
    4 entries                                                                                       
     n  l   j            E        occ.                                                              
     1  0  0.50      -273.3789   2.0000                                                             
     2  0  0.50       -13.7508   2.0000                                                             
     2  1  0.50        -5.2854   2.0000                                                             
     3  2  1.50        -5.4423   0.0000                                                             
   Description                                                                                      
     l       E           TYP  RCUT    TYP  RCUT                                                     
     0    -13.7508458     23  1.100                                                                 
     0     -8.2022199     23  1.100                                                                 
     1     -5.2854383     23  1.100                                                                 
     1      1.1560700     23  1.100                                                                 
     2     -5.4423304      7  1.100                                                                 
  local pseudopotential read in
  partial core-charges read in
  partial kinetic energy density read in
  atomic valenz-charges read in
  non local Contribution for L=           0  read in
    real space projection operators read in
  non local Contribution for L=           0  read in
    real space projection operators read in
  non local Contribution for L=           1  read in
    real space projection operators read in
  non local Contribution for L=           1  read in
    real space projection operators read in
    PAW grid and wavefunctions read in

   number of l-projection  operators is LMAX  =           4
   number of lm-projection operators is LMMAX =           8

 POTCAR:    PAW_PBE H_h 06Feb2004                 
   VRHFIN =H: ultrasoft test                                                                        
   LEXCH  = PE                                                                                      
   EATOM  =    12.4884 eV,    0.9179 Ry                                                             
                                                                                                    
   TITEL  = PAW_PBE H_h 06Feb2004                                                                   
   LULTRA =        F    use ultrasoft PP ?                                                          
   IUNSCR =        0    unscreen: 0-lin 1-nonlin 2-no                                               
   RPACOR =    0.000    partial core radius                                                         
   POMASS =    1.000; ZVAL   =    1.000    mass and valenz                                          
   RCORE  =    0.800    outmost cutoff radius                                                       
   RWIGS  =    0.700; RWIGS  =    0.370    wigner-seitz radius (au A)                               
   ENMAX  =  700.000; ENMIN  =  350.000 eV                                                          
   RCLOC  =    0.701    cutoff for local pot                                                        
   LCOR   =        T    correct aug charges                                                         
   LPAW   =        T    paw PP                                                                      
   EAUG   = 1000.000                                                                                
   RMAX   =    0.819    core radius for proj-oper                                                   
   RAUG   =    1.000    factor for augmentation sphere                                              
   RDEP   =    0.817    radius for radial grids                                                     
   RDEPT  =    0.817    core radius for aug-charge                                                  
                                                                                                    
   Atomic configuration                                                                             
    2 entries                                                                                       
     n  l   j            E        occ.                                                              
     1  0  0.50        -6.4927   1.0000                                                             
     2  1  0.50        -3.4015   0.0000                                                             
   Description                                                                                      
     l       E           TYP  RCUT    TYP  RCUT                                                     
     0     -6.4927493     23  0.800                                                                 
     0      6.8029130     23  0.800                                                                 
     1     -6.8029130     23  0.800                                                                 
  local pseudopotential read in
  atomic valenz-charges read in
  non local Contribution for L=           0  read in
    real space projection operators read in
  non local Contribution for L=           0  read in
    real space projection operators read in
  non local Contribution for L=           1  read in
    real space projection operators read in
    PAW grid and wavefunctions read in

   number of l-projection  operators is LMAX  =           3
   number of lm-projection operators is LMMAX =           5

 POTCAR:    PAW_PBE N_h 06Feb2004                 
   VRHFIN =N: s2p3                                                                                  
   LEXCH  = PE                                                                                      
   EATOM  =   264.5486 eV,   19.4438 Ry                                                             
                                                                                                    
   TITEL  = PAW_PBE N_h 06Feb2004                                                                   
   LULTRA =        F    use ultrasoft PP ?                                                          
   IUNSCR =        1    unscreen: 0-lin 1-nonlin 2-no                                               
   RPACOR =    0.800    partial core radius                                                         
   POMASS =   14.001; ZVAL   =    5.000    mass and valenz                                          
   RCORE  =    1.100    outmost cutoff radius                                                       
   RWIGS  =    1.480; RWIGS  =    0.783    wigner-seitz radius (au A)                               
   ENMAX  =  700.000; ENMIN  =  500.000 eV                                                          
   ICORE  =        2    local potential                                                             
   LCOR   =        T    correct aug charges                                                         
   LPAW   =        T    paw PP                                                                      
   EAUG   =  904.640                                                                                
   DEXC   =    0.000                                                                                
   RMAX   =    1.127    core radius for proj-oper                                                   
   RAUG   =    1.300    factor for augmentation sphere                                              
   RDEP   =    1.115    radius for radial grids                                                     
   RDEPT  =    1.106    core radius for aug-charge                                                  
                                                                                                    
   Atomic configuration                                                                             
    4 entries                                                                                       
     n  l   j            E        occ.                                                              
     1  0  0.50      -384.7179   2.0000                                                             
     2  0  0.50       -18.5828   2.0000                                                             
     2  1  0.50        -7.0898   3.0000                                                             
     3  2  1.50        -6.8029   0.0000                                                             
   Description                                                                                      
     l       E           TYP  RCUT    TYP  RCUT                                                     
     0    -18.5828117     23  1.100                                                                 
     0    -15.0750597     23  1.100                                                                 
     1     -7.0897851     23  1.100                                                                 
     1     -1.9663412     23  1.100                                                                 
     2     -6.8029130      7  1.100                                                                 
  local pseudopotential read in
  partial core-charges read in
  partial kinetic energy density read in
  kinetic energy density of atom read in
  atomic valenz-charges read in
  non local Contribution for L=           0  read in
    real space projection operators read in
  non local Contribution for L=           0  read in
    real space projection operators read in
  non local Contribution for L=           1  read in
    real space projection operators read in
  non local Contribution for L=           1  read in
    real space projection operators read in
    PAW grid and wavefunctions read in

   number of l-projection  operators is LMAX  =           4
   number of lm-projection operators is LMMAX =           8

 -----------------------------------------------------------------------------
|                                                                             |
|               ----> ADVICE to this user running VASP <----                  |
|                                                                             |
|     You enforced a specific xc type in the INCAR file but a different       |
|     type was found in the POTCAR file.                                      |
|     I HOPE YOU KNOW WHAT YOU ARE DOING!                                     |
|                                                                             |
 -----------------------------------------------------------------------------

  PAW_PBE C_h 06Feb2004                 :
 energy of atom  1       EATOM= -147.1560
 kinetic energy error for atom=    0.0031 (will be added to EATOM!!)
  PAW_PBE H_h 06Feb2004                 :
 energy of atom  2       EATOM=  -12.4884
 kinetic energy error for atom=    0.0006 (will be added to EATOM!!)
  PAW_PBE N_h 06Feb2004                 :
 energy of atom  3       EATOM= -264.5486
 kinetic energy error for atom=    0.0081 (will be added to EATOM!!)


 POSCAR:  C  H  N
  positions in direct lattice
  velocities in cartesian coordinates
 exchange correlation table for  LEXCH =       44
   RHO(1)=    0.500       N(1)  =     2000
   RHO(2)=  100.500       N(2)  =     4000

 VTST: version 4.1, (05/19/21)

 CHAIN: initializing optimizer
 
 OPT: Using VASP Dynamics algorithm
 CHAIN: Read ICHAIN            0

 POSCAR:  C  H  N
  positions in direct lattice
  velocities in cartesian coordinates



--------------------------------------------------------------------------------------------------------


 ion  position               nearest neighbor table
   1  0.267  0.303  0.266-   6 1.08   9 1.34   2 1.42
   2  0.227  0.258  0.243-   5 1.08   3 1.38   1 1.42
   3  0.260  0.227  0.201-   4 1.08   8 1.37   2 1.38
   4  0.249  0.189  0.172-   3 1.08
   5  0.180  0.250  0.256-   2 1.08
   6  0.258  0.337  0.300-   1 1.08
   7  0.352  0.241  0.174-   8 1.01
   8  0.316  0.253  0.200-   7 1.01   3 1.37   9 1.37
   9  0.322  0.300  0.240-   1 1.34   8 1.37

  LATTYP: Found a simple cubic cell.
 ALAT       =    22.0000000000
  
  Lattice vectors:
  
 A1 = (  22.0000000000,   0.0000000000,   0.0000000000)
 A2 = (   0.0000000000,  22.0000000000,   0.0000000000)
 A3 = (   0.0000000000,   0.0000000000,  22.0000000000)


Analysis of symmetry for initial positions (statically):
=====================================================================
 Subroutine PRICEL returns:
 Original cell was already a primitive cell.
 

 Routine SETGRP: Setting up the symmetry group for a 
 simple cubic supercell.


 Subroutine GETGRP returns: Found  1 space group operations
 (whereof  1 operations were pure point group operations)
 out of a pool of 48 trial point group operations.


The static configuration has the point symmetry C_1 .


Analysis of symmetry for dynamics (positions and initial velocities):
=====================================================================
 Subroutine PRICEL returns:
 Original cell was already a primitive cell.
 

 Routine SETGRP: Setting up the symmetry group for a 
 simple cubic supercell.


 Subroutine GETGRP returns: Found  1 space group operations
 (whereof  1 operations were pure point group operations)
 out of a pool of 48 trial point group operations.


The dynamic configuration has the point symmetry C_1 .


 Subroutine INISYM returns: Found  1 space group operations
 (whereof  1 operations are pure point group operations),
 and found     1 'primitive' translations


----------------------------------------------------------------------------------------

                                     Primitive cell                                     

  volume of cell :   10648.0000

  direct lattice vectors                    reciprocal lattice vectors
    22.000000000  0.000000000  0.000000000     0.045454545  0.000000000  0.000000000
     0.000000000 22.000000000  0.000000000     0.000000000  0.045454545  0.000000000
     0.000000000  0.000000000 22.000000000     0.000000000  0.000000000  0.045454545

  length of vectors
    22.000000000 22.000000000 22.000000000     0.045454545  0.045454545  0.045454545

  position of ions in fractional coordinates (direct lattice)
     0.266786606  0.303050343  0.266127617
     0.226563154  0.258246406  0.243351737
     0.260068675  0.226583539  0.200531064
     0.248718952  0.188813703  0.171596818
     0.180075058  0.250189397  0.256195079
     0.258307819  0.337108755  0.300292832
     0.352470103  0.241421800  0.173948733
     0.316363315  0.252794517  0.199717752
     0.321657682  0.300058357  0.239769732

  ion indices of the primitive-cell ions
   primitive index   ion index
                 1           1
                 2           2
                 3           3
                 4           4
                 5           5
                 6           6
                 7           7
                 8           8
                 9           9

----------------------------------------------------------------------------------------



 KPOINTS: auto                                    

Automatic generation of k-mesh.
 Grid dimensions read from file:
 generate k-points for:    1    1    1

 Generating k-lattice:

  Cartesian coordinates                     Fractional coordinates (reciprocal lattice)
     0.045454545  0.000000000  0.000000000     1.000000000  0.000000000  0.000000000
     0.000000000  0.045454545  0.000000000     0.000000000  1.000000000  0.000000000
     0.000000000  0.000000000  0.045454545     0.000000000  0.000000000  1.000000000

  Length of vectors
     0.045454545  0.045454545  0.045454545

  Shift w.r.t. Gamma in fractional coordinates (k-lattice)
     0.000000000  0.000000000  0.000000000

 
 Subroutine IBZKPT returns following result:
 ===========================================
 
 Found      1 irreducible k-points:
 
 Following reciprocal coordinates:
            Coordinates               Weight
  0.000000  0.000000  0.000000      1.000000
 
 Following cartesian coordinates:
            Coordinates               Weight
  0.000000  0.000000  0.000000      1.000000
 
 
 Subroutine IBZKPT_HF returns following result:
 ==============================================
 
 Found      1 k-points in 1st BZ
 the following      1 k-points will be used (e.g. in the exchange kernel)
 Following reciprocal coordinates:   # in IRBZ
  0.000000  0.000000  0.000000    1.00000000   1 t-inv F


--------------------------------------------------------------------------------------------------------




 Dimension of arrays:
   k-points           NKPTS =      1   k-points in BZ     NKDIM =      1   number of bands    NBANDS=    512
   number of dos      NEDOS =    301   number of ions     NIONS =      9
   non local maximal  LDIM  =      4   non local SUM 2l+1 LMDIM =      8
   total plane-waves  NPLWV = ******
   max r-space proj   IRMAX =      1   max aug-charges    IRDMAX=   9419
   dimension x,y,z NGX =   240 NGY =  240 NGZ =  240
   dimension x,y,z NGXF=   480 NGYF=  480 NGZF=  480
   support grid    NGXF=   480 NGYF=  480 NGZF=  480
   ions per type =               3   4   2
   NGX,Y,Z   is equivalent  to a cutoff of  18.14, 18.14, 18.14 a.u.
   NGXF,Y,Z  is equivalent  to a cutoff of  36.27, 36.27, 36.27 a.u.

 SYSTEM =  unknown system                          
 POSCAR =   C  H  N                                

 Startparameter for this run:
   NWRITE =      2    write-flag & timer
   PREC   = accura    normal or accurate (medium, high low for compatibility)
   ISTART =      0    job   : 0-new  1-cont  2-samecut
   ICHARG =      2    charge: 1-file 2-atom 10-const
   ISPIN  =      1    spin polarized calculation?
   LNONCOLLINEAR =      F non collinear calculations
   LSORBIT =      F    spin-orbit coupling
   INIWAV =      1    electr: 0-lowe 1-rand  2-diag
   LASPH  =      T    aspherical Exc in radial PAW
 Electronic Relaxation 1
   ENCUT  = 1000.0 eV  73.50 Ry    8.57 a.u.  56.73 56.73 56.73*2*pi/ulx,y,z
   ENINI  = 1000.0     initial cutoff
   ENAUG  = 1000.0 eV  augmentation charge cutoff
   NELM   =     60;   NELMIN=  2; NELMDL= -5     # of ELM steps 
   EDIFF  = 0.1E-07   stopping-criterion for ELM
   LREAL  =      F    real-space projection
   NLSPLINE    = F    spline interpolate recip. space projectors
   LCOMPAT=      F    compatible to vasp.4.4
   GGA_COMPAT  = T    GGA compatible to vasp.4.4-vasp.4.6
   LMAXPAW     = -100 max onsite density
   LMAXMIX     =    2 max onsite mixed and CHGCAR
   VOSKOWN=      0    Vosko Wilk Nusair interpolation
   ROPT   =    0.00000   0.00000   0.00000
 Ionic relaxation
   EDIFFG = 0.1E-06   stopping-criterion for IOM
   NSW    =    145    number of steps for IOM
   NBLOCK =      1;   KBLOCK =    145    inner block; outer block 
   IBRION =      6    ionic relax: 0-MD 1-quasi-New 2-CG
   NFREE  =      2    steps in history (QN), initial steepest desc. (CG)
   ISIF   =      2    stress and relaxation
   IWAVPR =     11    prediction:  0-non 1-charg 2-wave 3-comb
   ISYM   =      2    0-nonsym 1-usesym 2-fastsym
   LCORR  =      T    Harris-Foulkes like correction to forces

   POTIM  = 0.0080    time-step for ionic-motion
   TEIN   =    0.0    initial temperature
   TEBEG  =    0.0;   TEEND  =   0.0 temperature during run
   SMASS  =  -3.00    Nose mass-parameter (am)
   estimated Nose-frequenzy (Omega)   =  0.10E-29 period in steps = 0.79E+48 mass=  -0.111E-25a.u.
   SCALEE = 1.0000    scale energy and forces
   NPACO  =    256;   APACO  = 10.0  distance and # of slots for P.C.
   PSTRESS=    0.0 pullay stress

  Mass of Ions in am
   POMASS =  12.01  1.00 14.00
  Ionic Valenz
   ZVAL   =   4.00  1.00  5.00
  Atomic Wigner-Seitz radii
   RWIGS  =  -1.00 -1.00 -1.00
  virtual crystal weights 
   VCA    =   1.00  1.00  1.00
   NELECT =      26.0000    total number of electrons
   NUPDOWN=      -1.0000    fix difference up-down

 DOS related values:
   EMIN   =  10.00;   EMAX   =-10.00  energy-range for DOS
   EFERMI =   0.00;   METHOD = LEGACY      
   ISMEAR =     0;   SIGMA  =   0.01  broadening in eV -4-tet -1-fermi 0-gaus

 Electronic relaxation 2 (details)
   IALGO  =     58    algorithm
   LDIAG  =      T    sub-space diagonalisation (order eigenvalues)
   LSUBROT=      F    optimize rotation matrix (better conditioning)
   TURBO    =      0    0=normal 1=particle mesh
   IRESTART =      0    0=no restart 2=restart with 2 vectors
   NREBOOT  =      0    no. of reboots
   NMIN     =      0    reboot dimension
   EREF     =   0.00    reference energy to select bands
   IMIX   =      4    mixing-type and parameters
     AMIX     =   0.40;   BMIX     =  1.00
     AMIX_MAG =   1.60;   BMIX_MAG =  1.00
     AMIN     =   0.10
     WC   =   100.;   INIMIX=   1;  MIXPRE=   1;  MAXMIX= -45

 Intra band minimization:
   WEIMIN = 0.0010     energy-eigenvalue tresh-hold
   EBREAK =  0.49E-11  absolut break condition
   DEPER  =   0.30     relativ break condition  

   TIME   =   0.40     timestep for ELM

  volume/ion in A,a.u.               =    1183.11      7984.03
  Fermi-wavevector in a.u.,A,eV,Ry     =   0.220450  0.416590  0.661218  0.048598
  Thomas-Fermi vector in A             =   1.001172

 Write flags
   LWAVE        =      F    write WAVECAR
   LDOWNSAMPLE  =      F    k-point downsampling of WAVECAR
   LCHARG       =      F    write CHGCAR
   LVTOT        =      F    write LOCPOT, total local potential
   LVHAR        =      F    write LOCPOT, Hartree potential only
   LELF         =      F    write electronic localiz. function (ELF)
   LORBIT       =      0    0 simple, 1 ext, 2 COOP (PROOUT), +10 PAW based schemes


 Dipole corrections
   LMONO  =      F    monopole corrections only (constant potential shift)
   LDIPOL =      F    correct potential (dipole corrections)
   IDIPOL =      0    1-x, 2-y, 3-z, 4-all directions 
   EPSILON=  1.0000000 bulk dielectric constant

 Exchange correlation treatment:
   GGA     =    ML    GGA type
   LEXCH   =    44    internal setting for exchange type
   LIBXC   =     F    Libxc                    
   VOSKOWN =     0    Vosko Wilk Nusair interpolation
   LHFCALC =     F    Hartree Fock is set to
   LHFONE  =     F    Hartree Fock one center treatment
   AEXX    =    0.0000 exact exchange contribution

 vdW DFT:
   LUSE_VDW   =     T    switch on vdW DFT
   IVDW_NL    =     1    kernel type
   LSPIN_VDW  =     F    use spin-polarized vdW DFT
   Zab_VDW    =******    correlation parameter
   PARAM1     =0.1234
   PARAM2     =1.0000
   PARAM3     =0.0000
   -- rVV10 --
   BPARAM     = 6.3000
   CPARAM     = 0.0093

 Linear response parameters
   LEPSILON=     F    determine dielectric tensor
   LRPA    =     F    only Hartree local field effects (RPA)
   LNABLA  =     F    use nabla operator in PAW spheres
   LVEL    =     F    velocity operator in full k-point grid
   CSHIFT  =0.1000    complex shift for real part using Kramers Kronig
   OMEGAMAX=  -1.0    maximum frequency
   DEG_THRESHOLD= 0.2000000E-02 threshold for treating states as degnerate
   RTIME   =   -0.100 relaxation time in fs
  (WPLASMAI=    0.000 imaginary part of plasma frequency in eV, 0.658/RTIME)
   DFIELD  = 0.0000000 0.0000000 0.0000000 field for delta impulse in time

  Optional k-point grid parameters
   LKPOINTS_OPT  =     F    use optional k-point grid
   KPOINTS_OPT_MODE=     1    mode for optional k-point grid

 Orbital magnetization related:
   ORBITALMAG=     F  switch on orbital magnetization
   LCHIMAG   =     F  perturbation theory with respect to B field
   DQ        =  0.001000  dq finite difference perturbation B field
   LLRAUG    =     F  two centre corrections for induced B field
   LBONE     =     F  B-component reconstruction in AE one-centre
   LVGVCALC  =     T  calculate vGv susceptibility
   LVGVAPPL  =     F  apply vGv susceptibility instead of pGv for G=0

 Random number generation:
   RANDOM_GENERATOR = DEFAULT
   PCG_SEED         = not used


--------------------------------------------------------------------------------------------------------


 finite differences with symmetry
 charge density and potential will be updated during run
 non-spin polarized calculation
 Conjugate gradient for all bands (Freysoldt, et al. PRB 79, 241103 (2009))
 preconditioned conjugated gradient                                        
 perform sub-space diagonalisation
    before iterative eigenvector-optimisation
 modified Broyden-mixing scheme, WC =      100.0
 initial mixing is a Kerker type mixing with AMIX =  0.4000 and BMIX =      1.0000
 Hartree-type preconditioning will be used
 using additional bands          499
 reciprocal scheme for non local part
 use partial core corrections
 no Harris-corrections to forces 
 use gradient corrections 
 use of overlap-Matrix (Vanderbilt PP)
 Gauss-broadening in eV      SIGMA  =   0.01


--------------------------------------------------------------------------------------------------------


  energy-cutoff  :     1000.00
  volume of cell :    10648.00
      direct lattice vectors                 reciprocal lattice vectors
    22.000000000  0.000000000  0.000000000     0.045454545  0.000000000  0.000000000
     0.000000000 22.000000000  0.000000000     0.000000000  0.045454545  0.000000000
     0.000000000  0.000000000 22.000000000     0.000000000  0.000000000  0.045454545

  length of vectors
    22.000000000 22.000000000 22.000000000     0.045454545  0.045454545  0.045454545



 k-points in units of 2pi/SCALE and weight: auto                                    
   0.00000000  0.00000000  0.00000000       1.000

 k-points in reciprocal lattice and weights: auto                                    
   0.00000000  0.00000000  0.00000000       1.000

 position of ions in fractional coordinates (direct lattice) 
   0.26678661  0.30305034  0.26612762
   0.22656315  0.25824641  0.24335174
   0.26006867  0.22658354  0.20053106
   0.24871895  0.18881370  0.17159682
   0.18007506  0.25018940  0.25619508
   0.25830782  0.33710876  0.30029283
   0.35247010  0.24142180  0.17394873
   0.31636331  0.25279452  0.19971775
   0.32165768  0.30005836  0.23976973

 position of ions in cartesian coordinates  (Angst):
   5.86930533  6.66710755  5.85480757
   4.98438938  5.68142094  5.35373821
   5.72151085  4.98483786  4.41168341
   5.47181695  4.15390146  3.77512999
   3.96165127  5.50416674  5.63629173
   5.68277203  7.41639262  6.60644231
   7.75434227  5.31127960  3.82687213
   6.95999292  5.56147938  4.39379054
   7.07646901  6.60128386  5.27493411



--------------------------------------------------------------------------------------------------------


 use serial FFT for orbitals x direction half grid
 k-point   1 :   0.0000 0.0000 0.0000  plane waves:  381993

 maximum and minimum number of plane-waves per node :    381993   381993

 maximum number of plane-waves:    381993
 maximum index in each direction: 
   IXMAX=   56   IYMAX=   56   IZMAX=   56
   IXMIN=    0   IYMIN=  -56   IZMIN=  -56


 serial   3D FFT for wavefunctions
 parallel 3D FFT for charge:
    minimum data exchange during FFTs selected (reduces bandwidth)


 total amount of memory used by VASP MPI-rank0   809315. kBytes
=======================================================================

   base      :      30000. kBytes
   nonl-proj :     128507. kBytes
   fftplans  :      63753. kBytes
   grid      :     568673. kBytes
   one-center:         13. kBytes
   wavefun   :      18369. kBytes

     INWAV:  cpu time      0.0002: real time      0.0002
 Broyden mixing: mesh for mixing (old mesh)
   NGX =113   NGY =113   NGZ =113
  (NGX  =480   NGY  =480   NGZ  =480)
  gives a total of ****** points

 initial charge density was supplied:
 charge density of overlapping atoms calculated
 number of electron      26.0000000 magnetization 
 keeping initial charge density in first step


--------------------------------------------------------------------------------------------------------


 Maximum index for augmentation-charges            0 (set IRDMAX)


--------------------------------------------------------------------------------------------------------


 First call to EWALD:  gamma=   0.081
 Maximum number of real-space cells 3x 3x 3
 Maximum number of reciprocal cells 3x 3x 3

    FEWALD:  cpu time      0.0030: real time      0.0035


--------------------------------------- Ionic step        1  -------------------------------------------




--------------------------------------- Iteration      1(   1)  ---------------------------------------


vdW kernel read from vdw_kernel.bindat
  0.0000  0.2424  0.5071  0.7962  1.1119  1.4567  1.8333  2.2446  2.6937  3.1842
  3.7199  4.3049  4.9438  5.6415  6.4036  7.2358  8.1446  9.1372 10.2212 11.4050
 12.6979 14.1099 15.6519 17.3360 19.1751 21.1837 23.3773 25.7729 28.3892 31.2465
 34.3669 37.7748 41.4965 45.5611 50.0000

    POTLOK:  cpu time     13.8477: real time     13.8559
    SETDIJ:  cpu time      0.0781: real time      0.0785
    TRIAL :  cpu time     17.0782: real time     17.0864
    CORREC:  cpu time      0.0032: real time      0.0032
    --------------------------------------------
      LOOP:  cpu time     31.0258: real time     31.0426

 eigenvalue-minimisations  :  1024
 total energy-change (2. order) : 0.2373861E+03  (-0.1401392E+04)
 number of electron      26.0000000 magnetization 
 augmentation part       26.0000000 magnetization 

 Free energy of the ion-electron system (eV)
  ---------------------------------------------------
  alpha Z        PSCENC =         0.19661355
  Ewald energy   TEWEN  =      1667.62399594
  -Hartree energ DENC   =     -2378.01890390
  -exchange      EXHF   =         0.00000000
  -V(xc)+E(xc)   XCENC  =        58.07168485
  PAW double counting   =       766.30061187     -746.37122856
  entropy T*S    EENTRO =        -0.00519646
  eigenvalues    EBANDS =      -172.23647276
  atomic energy  EATOM  =      1041.82494915
  ---------------------------------------------------
  free energy    TOTEN  =       237.38605368 eV

  energy without entropy =      237.39125015  energy(sigma->0) =      237.38865191


--------------------------------------------------------------------------------------------------------




--------------------------------------- Iteration      1(   2)  ---------------------------------------


    TRIAL :  cpu time     40.7451: real time     40.7666
    CORREC:  cpu time      0.0003: real time      0.0003
    --------------------------------------------
      LOOP:  cpu time     40.7588: real time     40.7967

 eigenvalue-minimisations  :  1536
 total energy-change (2. order) :-0.2873312E+03  (-0.2861200E+03)
 number of electron      26.0000000 magnetization 
 augmentation part       26.0000000 magnetization 

 Free energy of the ion-electron system (eV)
  ---------------------------------------------------
  alpha Z        PSCENC =         0.19661355
  Ewald energy   TEWEN  =      1667.62399594
  -Hartree energ DENC   =     -2378.01890390
  -exchange      EXHF   =         0.00000000
  -V(xc)+E(xc)   XCENC  =        58.07168485
  PAW double counting   =       766.30061187     -746.37122856
  entropy T*S    EENTRO =        -0.00000000
  eigenvalues    EBANDS =      -459.57282201
  atomic energy  EATOM  =      1041.82494915
  ---------------------------------------------------
  free energy    TOTEN  =       -49.94509910 eV

  energy without entropy =      -49.94509910  energy(sigma->0) =      -49.94509910


--------------------------------------------------------------------------------------------------------




--------------------------------------- Iteration      1(   3)  ---------------------------------------


    TRIAL :  cpu time     39.7763: real time     39.7947
    CORREC:  cpu time      0.0002: real time      0.0002
    --------------------------------------------
      LOOP:  cpu time     39.7905: real time     39.8255

 eigenvalue-minimisations  :  1536
 total energy-change (2. order) :-0.6013985E+01  (-0.6013985E+01)
 number of electron      26.0000000 magnetization 
 augmentation part       26.0000000 magnetization 

 Free energy of the ion-electron system (eV)
  ---------------------------------------------------
  alpha Z        PSCENC =         0.19661355
  Ewald energy   TEWEN  =      1667.62399594
  -Hartree energ DENC   =     -2378.01890390
  -exchange      EXHF   =         0.00000000
  -V(xc)+E(xc)   XCENC  =        58.07168485
  PAW double counting   =       766.30061187     -746.37122856
  entropy T*S    EENTRO =        -0.00000000
  eigenvalues    EBANDS =      -465.58680669
  atomic energy  EATOM  =      1041.82494915
  ---------------------------------------------------
  free energy    TOTEN  =       -55.95908378 eV

  energy without entropy =      -55.95908378  energy(sigma->0) =      -55.95908378


--------------------------------------------------------------------------------------------------------




--------------------------------------- Iteration      1(   4)  ---------------------------------------


    TRIAL :  cpu time     18.1630: real time     18.1724
    CORREC:  cpu time      0.0002: real time      0.0002
    --------------------------------------------
      LOOP:  cpu time     18.1941: real time     18.2036

 eigenvalue-minimisations  :  1024
 total energy-change (2. order) :-0.1811176E-02  (-0.1811177E-02)
 number of electron      26.0000000 magnetization 
 augmentation part       26.0000000 magnetization 

 Free energy of the ion-electron system (eV)
  ---------------------------------------------------
  alpha Z        PSCENC =         0.19661355
  Ewald energy   TEWEN  =      1667.62399594
  -Hartree energ DENC   =     -2378.01890390
  -exchange      EXHF   =         0.00000000
  -V(xc)+E(xc)   XCENC  =        58.07168485
  PAW double counting   =       766.30061187     -746.37122856
  entropy T*S    EENTRO =        -0.00000000
  eigenvalues    EBANDS =      -465.58861786
  atomic energy  EATOM  =      1041.82494915
  ---------------------------------------------------
  free energy    TOTEN  =       -55.96089495 eV

  energy without entropy =      -55.96089495  energy(sigma->0) =      -55.96089495


--------------------------------------------------------------------------------------------------------




--------------------------------------- Iteration      1(   5)  ---------------------------------------


    TRIAL :  cpu time     80.1948: real time     80.2337
    CORREC:  cpu time      0.0002: real time      0.0002
    CHARGE:  cpu time      2.3488: real time      2.3507
    --------------------------------------------
      LOOP:  cpu time     82.5589: real time     82.6151

 eigenvalue-minimisations  :  2048
 total energy-change (2. order) :-0.8613082E-05  (-0.8641068E-05)
 number of electron      26.0000000 magnetization 
 augmentation part       -0.0338128 magnetization 

 Free energy of the ion-electron system (eV)
  ---------------------------------------------------
  alpha Z        PSCENC =         0.19661355
  Ewald energy   TEWEN  =      1667.62399594
  -Hartree energ DENC   =     -2378.01890390
  -exchange      EXHF   =         0.00000000
  -V(xc)+E(xc)   XCENC  =        58.07168485
  PAW double counting   =       766.30061187     -746.37122856
  entropy T*S    EENTRO =        -0.00000000
  eigenvalues    EBANDS =      -465.58862648
  atomic energy  EATOM  =      1041.82494915
  ---------------------------------------------------
  free energy    TOTEN  =       -55.96090357 eV

  energy without entropy =      -55.96090357  energy(sigma->0) =      -55.96090357


--------------------------------------------------------------------------------------------------------




--------------------------------------- Iteration      1(   6)  ---------------------------------------


    POTLOK:  cpu time     12.3257: real time     12.3293
    SETDIJ:  cpu time      0.0696: real time      0.0697
    TRIAL :  cpu time      4.9780: real time      4.9894
    CORREC:  cpu time     15.9942: real time     15.9997
    CHARGE:  cpu time      2.3086: real time      2.3093
    --------------------------------------------
      LOOP:  cpu time     35.6940: real time     35.7284

 eigenvalue-minimisations  :     0
 total energy-change (2. order) : 0.1209501E+02  (-0.4496189E+01)
 number of electron      26.0000000 magnetization 
 augmentation part       -0.0502660 magnetization 

 Free energy of the ion-electron system (eV)
  ---------------------------------------------------
  alpha Z        PSCENC =         0.19661355
  Ewald energy   TEWEN  =      1667.62399594
  -Hartree energ DENC   =     -2613.24004417
  -exchange      EXHF   =         0.00000000
  -V(xc)+E(xc)   XCENC  =        67.82101165
  PAW double counting   =      5121.06295648    -5103.74584912
  entropy T*S    EENTRO =        -0.00000000
  eigenvalues    EBANDS =      -225.40953053
  atomic energy  EATOM  =      1041.82494915
  ---------------------------------------------------
  free energy    TOTEN  =       -43.86589706 eV

  energy without entropy =      -43.86589706  energy(sigma->0) =      -43.86589706


--------------------------------------------------------------------------------------------------------




--------------------------------------- Iteration      1(   7)  ---------------------------------------


    POTLOK:  cpu time     12.2908: real time     12.2942
    SETDIJ:  cpu time      0.0696: real time      0.0696
    TRIAL :  cpu time      4.7510: real time      4.7530
    CORREC:  cpu time     15.7924: real time     15.7977
    CHARGE:  cpu time      2.2939: real time      2.2944
    --------------------------------------------
      LOOP:  cpu time     35.2301: real time     35.2416

 eigenvalue-minimisations  :     0
 total energy-change (2. order) :-0.4491226E+01  (-0.9177724E+00)
 number of electron      26.0000000 magnetization 
 augmentation part       -0.0603519 magnetization 

 Free energy of the ion-electron system (eV)
  ---------------------------------------------------
  alpha Z        PSCENC =         0.19661355
  Ewald energy   TEWEN  =      1667.62399594
  -Hartree energ DENC   =     -2523.94158936
  -exchange      EXHF   =         0.00000000
  -V(xc)+E(xc)   XCENC  =        64.34068524
  PAW double counting   =      7710.63857214    -7692.27424903
  entropy T*S    EENTRO =        -0.00000000
  eigenvalues    EBANDS =      -316.76610090
  atomic energy  EATOM  =      1041.82494915
  ---------------------------------------------------
  free energy    TOTEN  =       -48.35712327 eV

  energy without entropy =      -48.35712327  energy(sigma->0) =      -48.35712327


--------------------------------------------------------------------------------------------------------




--------------------------------------- Iteration      1(   8)  ---------------------------------------


    POTLOK:  cpu time     12.4284: real time     12.4320
    SETDIJ:  cpu time      0.0698: real time      0.0698
    TRIAL :  cpu time      4.7706: real time      4.7727
    CORREC:  cpu time     15.8615: real time     15.8654
    CHARGE:  cpu time      2.2923: real time      2.2937
    --------------------------------------------
      LOOP:  cpu time     35.4384: real time     35.4649

 eigenvalue-minimisations  :     0
 total energy-change (2. order) :-0.9261458E+00  (-0.4299255E+00)
 number of electron      26.0000000 magnetization 
 augmentation part       -0.0596663 magnetization 

 Free energy of the ion-electron system (eV)
  ---------------------------------------------------
  alpha Z        PSCENC =         0.19661355
  Ewald energy   TEWEN  =      1667.62399594
  -Hartree energ DENC   =     -2511.97264807
  -exchange      EXHF   =         0.00000000
  -V(xc)+E(xc)   XCENC  =        63.98341281
  PAW double counting   =      8567.93928511    -8549.36900106
  entropy T*S    EENTRO =        -0.00000000
  eigenvalues    EBANDS =      -329.50987649
  atomic energy  EATOM  =      1041.82494915
  ---------------------------------------------------
  free energy    TOTEN  =       -49.28326907 eV

  energy without entropy =      -49.28326907  energy(sigma->0) =      -49.28326907


--------------------------------------------------------------------------------------------------------




--------------------------------------- Iteration      1(   9)  ---------------------------------------


    POTLOK:  cpu time     12.3758: real time     12.3791
    SETDIJ:  cpu time      0.0698: real time      0.0698
    TRIAL :  cpu time      4.8012: real time      4.8032
    CORREC:  cpu time     15.8672: real time     15.8720
    CHARGE:  cpu time      2.2957: real time      2.2963
    --------------------------------------------
      LOOP:  cpu time     35.4255: real time     35.4521

 eigenvalue-minimisations  :     0
 total energy-change (2. order) :-0.4241125E+00  (-0.1139158E+00)
 number of electron      26.0000000 magnetization 
 augmentation part       -0.0583984 magnetization 

 Free energy of the ion-electron system (eV)
  ---------------------------------------------------
  alpha Z        PSCENC =         0.19661355
  Ewald energy   TEWEN  =      1667.62399594
  -Hartree energ DENC   =     -2497.27397989
  -exchange      EXHF   =         0.00000000
  -V(xc)+E(xc)   XCENC  =        63.47715065
  PAW double counting   =      8738.93625575    -8720.27146828
  entropy T*S    EENTRO =        -0.00000000
  eigenvalues    EBANDS =      -344.22089839
  atomic energy  EATOM  =      1041.82494915
  ---------------------------------------------------
  free energy    TOTEN  =       -49.70738152 eV

  energy without entropy =      -49.70738152  energy(sigma->0) =      -49.70738152


--------------------------------------------------------------------------------------------------------




--------------------------------------- Iteration      1(  10)  ---------------------------------------


    POTLOK:  cpu time     12.4866: real time     12.4901
    SETDIJ:  cpu time      0.0699: real time      0.0699
    TRIAL :  cpu time      4.7288: real time      4.7310
    CORREC:  cpu time     15.8240: real time     15.8291
    CHARGE:  cpu time      2.2943: real time      2.2953
    --------------------------------------------
      LOOP:  cpu time     35.4192: real time     35.4471

 eigenvalue-minimisations  :     0
 total energy-change (2. order) :-0.1137628E+00  (-0.3139972E-01)
 number of electron      26.0000000 magnetization 
 augmentation part       -0.0572463 magnetization 

 Free energy of the ion-electron system (eV)
  ---------------------------------------------------
  alpha Z        PSCENC =         0.19661355
  Ewald energy   TEWEN  =      1667.62399594
  -Hartree energ DENC   =     -2492.42964555
  -exchange      EXHF   =         0.00000000
  -V(xc)+E(xc)   XCENC  =        63.30914410
  PAW double counting   =      8325.17590702    -8306.53167062
  entropy T*S    EENTRO =        -0.00000000
  eigenvalues    EBANDS =      -348.99043794
  atomic energy  EATOM  =      1041.82494915
  ---------------------------------------------------
  free energy    TOTEN  =       -49.82114436 eV

  energy without entropy =      -49.82114436  energy(sigma->0) =      -49.82114436


--------------------------------------------------------------------------------------------------------




--------------------------------------- Iteration      1(  11)  ---------------------------------------


    POTLOK:  cpu time     12.2810: real time     12.2839
    SETDIJ:  cpu time      0.0698: real time      0.0698
    TRIAL :  cpu time      4.7305: real time      4.7328
    CORREC:  cpu time     15.8443: real time     15.8489
    CHARGE:  cpu time      2.2956: real time      2.2963
    --------------------------------------------
      LOOP:  cpu time     35.2418: real time     35.2640

 eigenvalue-minimisations  :     0
 total energy-change (2. order) :-0.3142245E-01  (-0.9435496E-02)
 number of electron      26.0000000 magnetization 
 augmentation part       -0.0567591 magnetization 

 Free energy of the ion-electron system (eV)
  ---------------------------------------------------
  alpha Z        PSCENC =         0.19661355
  Ewald energy   TEWEN  =      1667.62399594
  -Hartree energ DENC   =     -2492.84472837
  -exchange      EXHF   =         0.00000000
  -V(xc)+E(xc)   XCENC  =        63.31817107
  PAW double counting   =      7935.69053763    -7917.09481835
  entropy T*S    EENTRO =        -0.00000000
  eigenvalues    EBANDS =      -348.56728743
  atomic energy  EATOM  =      1041.82494915
  ---------------------------------------------------
  free energy    TOTEN  =       -49.85256681 eV

  energy without entropy =      -49.85256681  energy(sigma->0) =      -49.85256681


--------------------------------------------------------------------------------------------------------




--------------------------------------- Iteration      1(  12)  ---------------------------------------


    POTLOK:  cpu time     12.2916: real time     12.2944
    SETDIJ:  cpu time      0.0697: real time      0.0697
    TRIAL :  cpu time      4.7585: real time      4.7602
    CORREC:  cpu time     15.7620: real time     15.7660
    CHARGE:  cpu time      2.2945: real time      2.2950
    --------------------------------------------
      LOOP:  cpu time     35.2082: real time     35.2174

 eigenvalue-minimisations  :     0
 total energy-change (2. order) :-0.9444247E-02  (-0.3424597E-02)
 number of electron      26.0000000 magnetization 
 augmentation part       -0.0570605 magnetization 

 Free energy of the ion-electron system (eV)
  ---------------------------------------------------
  alpha Z        PSCENC =         0.19661355
  Ewald energy   TEWEN  =      1667.62399594
  -Hartree energ DENC   =     -2493.28625926
  -exchange      EXHF   =         0.00000000
  -V(xc)+E(xc)   XCENC  =        63.31625388
  PAW double counting   =      7757.35259704    -7738.78086778
  entropy T*S    EENTRO =        -0.00000000
  eigenvalues    EBANDS =      -348.10929357
  atomic energy  EATOM  =      1041.82494915
  ---------------------------------------------------
  free energy    TOTEN  =       -49.86201105 eV

  energy without entropy =      -49.86201105  energy(sigma->0) =      -49.86201105


--------------------------------------------------------------------------------------------------------




--------------------------------------- Iteration      1(  13)  ---------------------------------------


    POTLOK:  cpu time     12.3490: real time     12.3519
    SETDIJ:  cpu time      0.0697: real time      0.0699
    TRIAL :  cpu time      4.7563: real time      4.7580
    CORREC:  cpu time     15.7852: real time     15.7896
    CHARGE:  cpu time      2.2917: real time      2.2923
    --------------------------------------------
      LOOP:  cpu time     35.2706: real time     35.2928

 eigenvalue-minimisations  :     0
 total energy-change (2. order) :-0.3421310E-02  (-0.1145512E-02)
 number of electron      26.0000000 magnetization 
 augmentation part       -0.0574365 magnetization 

 Free energy of the ion-electron system (eV)
  ---------------------------------------------------
  alpha Z        PSCENC =         0.19661355
  Ewald energy   TEWEN  =      1667.62399594
  -Hartree energ DENC   =     -2493.55549809
  -exchange      EXHF   =         0.00000000
  -V(xc)+E(xc)   XCENC  =        63.31090666
  PAW double counting   =      7717.57184515    -7699.00515514
  entropy T*S    EENTRO =        -0.00000000
  eigenvalues    EBANDS =      -347.83308957
  atomic energy  EATOM  =      1041.82494915
  ---------------------------------------------------
  free energy    TOTEN  =       -49.86543236 eV

  energy without entropy =      -49.86543236  energy(sigma->0) =      -49.86543236


--------------------------------------------------------------------------------------------------------




--------------------------------------- Iteration      1(  14)  ---------------------------------------


    POTLOK:  cpu time     12.2986: real time     12.3019
    SETDIJ:  cpu time      0.0696: real time      0.0696
    TRIAL :  cpu time      4.7866: real time      4.7889
    CORREC:  cpu time     15.7670: real time     15.7720
    CHARGE:  cpu time      2.2984: real time      2.2996
    --------------------------------------------
      LOOP:  cpu time     35.2362: real time     35.2629

 eigenvalue-minimisations  :     0
 total energy-change (2. order) :-0.1143849E-02  (-0.3349899E-03)
 number of electron      26.0000000 magnetization 
 augmentation part       -0.0576366 magnetization 

 Free energy of the ion-electron system (eV)
  ---------------------------------------------------
  alpha Z        PSCENC =         0.19661355
  Ewald energy   TEWEN  =      1667.62399594
  -Hartree energ DENC   =     -2493.93399329
  -exchange      EXHF   =         0.00000000
  -V(xc)+E(xc)   XCENC  =        63.31847506
  PAW double counting   =      7737.85269866    -7719.28530199
  entropy T*S    EENTRO =        -0.00000000
  eigenvalues    EBANDS =      -347.46401328
  atomic energy  EATOM  =      1041.82494915
  ---------------------------------------------------
  free energy    TOTEN  =       -49.86657621 eV

  energy without entropy =      -49.86657621  energy(sigma->0) =      -49.86657621


--------------------------------------------------------------------------------------------------------




--------------------------------------- Iteration      1(  15)  ---------------------------------------


    POTLOK:  cpu time     12.2515: real time     12.2549
    SETDIJ:  cpu time      0.0699: real time      0.0699
    TRIAL :  cpu time      4.7930: real time      4.7956
    CORREC:  cpu time     15.7575: real time     15.7620
    CHARGE:  cpu time      2.2909: real time      2.2915
    --------------------------------------------
      LOOP:  cpu time     35.1937: real time     35.2052

 eigenvalue-minimisations  :     0
 total energy-change (2. order) :-0.3347463E-03  (-0.8991883E-04)
 number of electron      26.0000000 magnetization 
 augmentation part       -0.0576925 magnetization 

 Free energy of the ion-electron system (eV)
  ---------------------------------------------------
  alpha Z        PSCENC =         0.19661355
  Ewald energy   TEWEN  =      1667.62399594
  -Hartree energ DENC   =     -2494.11765495
  -exchange      EXHF   =         0.00000000
  -V(xc)+E(xc)   XCENC  =        63.32481739
  PAW double counting   =      7761.80574739    -7743.23653573
  entropy T*S    EENTRO =        -0.00000000
  eigenvalues    EBANDS =      -347.28884370
  atomic energy  EATOM  =      1041.82494915
  ---------------------------------------------------
  free energy    TOTEN  =       -49.86691096 eV

  energy without entropy =      -49.86691096  energy(sigma->0) =      -49.86691096


--------------------------------------------------------------------------------------------------------




--------------------------------------- Iteration      1(  16)  ---------------------------------------


    POTLOK:  cpu time     12.2291: real time     12.2325
    SETDIJ:  cpu time      0.0696: real time      0.0696
    TRIAL :  cpu time      4.7794: real time      4.7816
    CORREC:  cpu time     15.8711: real time     15.8758
    CHARGE:  cpu time      2.2945: real time      2.2952
    --------------------------------------------
      LOOP:  cpu time     35.2585: real time     35.2862

 eigenvalue-minimisations  :     0
 total energy-change (2. order) :-0.9001435E-04  (-0.2462177E-04)
 number of electron      26.0000000 magnetization 
 augmentation part       -0.0576802 magnetization 

 Free energy of the ion-electron system (eV)
  ---------------------------------------------------
  alpha Z        PSCENC =         0.19661355
  Ewald energy   TEWEN  =      1667.62399594
  -Hartree energ DENC   =     -2494.12629203
  -exchange      EXHF   =         0.00000000
  -V(xc)+E(xc)   XCENC  =        63.32632908
  PAW double counting   =      7772.78983011    -7754.21910912
  entropy T*S    EENTRO =        -0.00000000
  eigenvalues    EBANDS =      -347.28331766
  atomic energy  EATOM  =      1041.82494915
  ---------------------------------------------------
  free energy    TOTEN  =       -49.86700097 eV

  energy without entropy =      -49.86700097  energy(sigma->0) =      -49.86700097


--------------------------------------------------------------------------------------------------------




--------------------------------------- Iteration      1(  17)  ---------------------------------------


    POTLOK:  cpu time     12.2320: real time     12.2352
    SETDIJ:  cpu time      0.0697: real time      0.0697
    TRIAL :  cpu time      4.7632: real time      4.7653
    CORREC:  cpu time     15.8413: real time     15.8458
    CHARGE:  cpu time      2.2940: real time      2.2946
    --------------------------------------------
      LOOP:  cpu time     35.2179: real time     35.2424

 eigenvalue-minimisations  :     0
 total energy-change (2. order) :-0.2473356E-04  (-0.7320099E-05)
 number of electron      26.0000000 magnetization 
 augmentation part       -0.0576581 magnetization 

 Free energy of the ion-electron system (eV)
  ---------------------------------------------------
  alpha Z        PSCENC =         0.19661355
  Ewald energy   TEWEN  =      1667.62399594
  -Hartree energ DENC   =     -2494.11424111
  -exchange      EXHF   =         0.00000000
  -V(xc)+E(xc)   XCENC  =        63.32677638
  PAW double counting   =      7775.10521416    -7756.53394826
  entropy T*S    EENTRO =        -0.00000000
  eigenvalues    EBANDS =      -347.29638551
  atomic energy  EATOM  =      1041.82494915
  ---------------------------------------------------
  free energy    TOTEN  =       -49.86702571 eV

  energy without entropy =      -49.86702571  energy(sigma->0) =      -49.86702571


--------------------------------------------------------------------------------------------------------




--------------------------------------- Iteration      1(  18)  ---------------------------------------


    POTLOK:  cpu time     12.2059: real time     12.2096
    SETDIJ:  cpu time      0.0706: real time      0.0706
    TRIAL :  cpu time      4.7603: real time      4.7626
    CORREC:  cpu time     15.9620: real time     15.9669
    CHARGE:  cpu time      2.2977: real time      2.2988
    --------------------------------------------
      LOOP:  cpu time     35.3277: real time     35.3399

 eigenvalue-minimisations  :     0
 total energy-change (2. order) :-0.7379944E-05  (-0.2263080E-05)
 number of electron      26.0000000 magnetization 
 augmentation part       -0.0576445 magnetization 

 Free energy of the ion-electron system (eV)
  ---------------------------------------------------
  alpha Z        PSCENC =         0.19661355
  Ewald energy   TEWEN  =      1667.62399594
  -Hartree energ DENC   =     -2494.10005422
  -exchange      EXHF   =         0.00000000
  -V(xc)+E(xc)   XCENC  =        63.32669407
  PAW double counting   =      7774.96376826    -7756.39240521
  entropy T*S    EENTRO =        -0.00000000
  eigenvalues    EBANDS =      -347.31059463
  atomic energy  EATOM  =      1041.82494915
  ---------------------------------------------------
  free energy    TOTEN  =       -49.86703309 eV

  energy without entropy =      -49.86703309  energy(sigma->0) =      -49.86703309


--------------------------------------------------------------------------------------------------------




--------------------------------------- Iteration      1(  19)  ---------------------------------------


    POTLOK:  cpu time     12.1829: real time     12.1858
    SETDIJ:  cpu time      0.0698: real time      0.0698
    TRIAL :  cpu time      4.7449: real time      4.7469
    CORREC:  cpu time     15.7603: real time     15.7651
    CHARGE:  cpu time      2.2910: real time      2.2917
    --------------------------------------------
      LOOP:  cpu time     35.0641: real time     35.1018

 eigenvalue-minimisations  :     0
 total energy-change (2. order) :-0.2293914E-05  (-0.7178731E-06)
 number of electron      26.0000000 magnetization 
 augmentation part       -0.0576398 magnetization 

 Free energy of the ion-electron system (eV)
  ---------------------------------------------------
  alpha Z        PSCENC =         0.19661355
  Ewald energy   TEWEN  =      1667.62399594
  -Hartree energ DENC   =     -2494.08755233
  -exchange      EXHF   =         0.00000000
  -V(xc)+E(xc)   XCENC  =        63.32641255
  PAW double counting   =      7774.94353189    -7756.37216428
  entropy T*S    EENTRO =        -0.00000000
  eigenvalues    EBANDS =      -347.32282184
  atomic energy  EATOM  =      1041.82494915
  ---------------------------------------------------
  free energy    TOTEN  =       -49.86703538 eV

  energy without entropy =      -49.86703538  energy(sigma->0) =      -49.86703538


--------------------------------------------------------------------------------------------------------




--------------------------------------- Iteration      1(  20)  ---------------------------------------


    POTLOK:  cpu time     12.2722: real time     12.2759
    SETDIJ:  cpu time      0.0697: real time      0.0697
    TRIAL :  cpu time      4.7592: real time      4.7615
    CORREC:  cpu time     15.8551: real time     15.8601
    CHARGE:  cpu time      2.2930: real time      2.2936
    --------------------------------------------
      LOOP:  cpu time     35.2660: real time     35.2943

 eigenvalue-minimisations  :     0
 total energy-change (2. order) :-0.7213230E-06  (-0.2284047E-06)
 number of electron      26.0000000 magnetization 
 augmentation part       -0.0576403 magnetization 

 Free energy of the ion-electron system (eV)
  ---------------------------------------------------
  alpha Z        PSCENC =         0.19661355
  Ewald energy   TEWEN  =      1667.62399594
  -Hartree energ DENC   =     -2494.08548225
  -exchange      EXHF   =         0.00000000
  -V(xc)+E(xc)   XCENC  =        63.32638680
  PAW double counting   =      7775.33208895    -7756.76076681
  entropy T*S    EENTRO =        -0.00000000
  eigenvalues    EBANDS =      -347.32482142
  atomic energy  EATOM  =      1041.82494915
  ---------------------------------------------------
  free energy    TOTEN  =       -49.86703610 eV

  energy without entropy =      -49.86703610  energy(sigma->0) =      -49.86703610


--------------------------------------------------------------------------------------------------------




--------------------------------------- Iteration      1(  21)  ---------------------------------------


    POTLOK:  cpu time     12.1591: real time     12.1625
    SETDIJ:  cpu time      0.0699: real time      0.0699
    TRIAL :  cpu time      4.7773: real time      4.7794
    CORREC:  cpu time     15.8761: real time     15.8809
    CHARGE:  cpu time      2.2971: real time      2.2977
    --------------------------------------------
      LOOP:  cpu time     35.1966: real time     35.2217

 eigenvalue-minimisations  :     0
 total energy-change (2. order) :-0.2221650E-06  (-0.6086946E-07)
 number of electron      26.0000000 magnetization 
 augmentation part       -0.0576412 magnetization 

 Free energy of the ion-electron system (eV)
  ---------------------------------------------------
  alpha Z        PSCENC =         0.19661355
  Ewald energy   TEWEN  =      1667.62399594
  -Hartree energ DENC   =     -2494.08632349
  -exchange      EXHF   =         0.00000000
  -V(xc)+E(xc)   XCENC  =        63.32642412
  PAW double counting   =      7775.79883790    -7757.22754505
  entropy T*S    EENTRO =        -0.00000000
  eigenvalues    EBANDS =      -347.32398844
  atomic energy  EATOM  =      1041.82494915
  ---------------------------------------------------
  free energy    TOTEN  =       -49.86703632 eV

  energy without entropy =      -49.86703632  energy(sigma->0) =      -49.86703632


--------------------------------------------------------------------------------------------------------




--------------------------------------- Iteration      1(  22)  ---------------------------------------


    POTLOK:  cpu time     12.2070: real time     12.2104
    SETDIJ:  cpu time      0.0696: real time      0.0696
    TRIAL :  cpu time      4.7880: real time      4.7903
    CORREC:  cpu time     15.7745: real time     15.7799
    CHARGE:  cpu time      2.2952: real time      2.2959
    --------------------------------------------
      LOOP:  cpu time     35.1634: real time     35.1784

 eigenvalue-minimisations  :     0
 total energy-change (2. order) :-0.6239407E-07  (-0.1912857E-07)
 number of electron      26.0000000 magnetization 
 augmentation part       -0.0576417 magnetization 

 Free energy of the ion-electron system (eV)
  ---------------------------------------------------
  alpha Z        PSCENC =         0.19661355
  Ewald energy   TEWEN  =      1667.62399594
  -Hartree energ DENC   =     -2494.08721667
  -exchange      EXHF   =         0.00000000
  -V(xc)+E(xc)   XCENC  =        63.32645003
  PAW double counting   =      7775.99948224    -7757.42819493
  entropy T*S    EENTRO =        -0.00000000
  eigenvalues    EBANDS =      -347.32311570
  atomic energy  EATOM  =      1041.82494915
  ---------------------------------------------------
  free energy    TOTEN  =       -49.86703639 eV

  energy without entropy =      -49.86703639  energy(sigma->0) =      -49.86703639


--------------------------------------------------------------------------------------------------------




--------------------------------------- Iteration      1(  23)  ---------------------------------------


    POTLOK:  cpu time     12.1612: real time     12.1645
    SETDIJ:  cpu time      0.0698: real time      0.0699
    TRIAL :  cpu time      4.7763: real time      4.7789
    CORREC:  cpu time     15.8409: real time     15.8457
    CHARGE:  cpu time      2.2955: real time      2.2967
    --------------------------------------------
      LOOP:  cpu time     35.1758: real time     35.1883

 eigenvalue-minimisations  :     0
 total energy-change (2. order) :-0.2224988E-07  (-0.4272555E-08)
 number of electron      26.0000000 magnetization 
 augmentation part       -0.0576419 magnetization 

 Free energy of the ion-electron system (eV)
  ---------------------------------------------------
  alpha Z        PSCENC =         0.19661355
  Ewald energy   TEWEN  =      1667.62399594
  -Hartree energ DENC   =     -2494.08828402
  -exchange      EXHF   =         0.00000000
  -V(xc)+E(xc)   XCENC  =        63.32648199
  PAW double counting   =      7776.01218572    -7757.44090172
  entropy T*S    EENTRO =        -0.00000000
  eigenvalues    EBANDS =      -347.32207701
  atomic energy  EATOM  =      1041.82494915
  ---------------------------------------------------
  free energy    TOTEN  =       -49.86703641 eV

  energy without entropy =      -49.86703641  energy(sigma->0) =      -49.86703641


--------------------------------------------------------------------------------------------------------




--------------------------------------- Iteration      1(  24)  ---------------------------------------


    POTLOK:  cpu time     12.1825: real time     12.1860
    SETDIJ:  cpu time      0.0697: real time      0.0697
    TRIAL :  cpu time      4.7727: real time      4.7748
    CORREC:  cpu time     15.7614: real time     15.7663
    EDDIAG:  cpu time      1.8898: real time      1.8902
    CHARGE:  cpu time      2.3036: real time      2.3046
    --------------------------------------------
      LOOP:  cpu time     36.9963: real time     37.0237

 eigenvalue-minimisations  :     0
 total energy-change (2. order) :-0.6181835E-08  (-0.1125633E-08)
 number of electron      26.0000000 magnetization 
 augmentation part       -0.0576420 magnetization 

 Free energy of the ion-electron system (eV)
  ---------------------------------------------------
  alpha Z        PSCENC =         0.19661355
  Ewald energy   TEWEN  =      1667.62399594
  -Hartree energ DENC   =     -2494.08852572
  -exchange      EXHF   =         0.00000000
  -V(xc)+E(xc)   XCENC  =        63.32648842
  PAW double counting   =      7775.98729533    -7757.41601029
  entropy T*S    EENTRO =        -0.00000000
  eigenvalues    EBANDS =      -347.32184279
  atomic energy  EATOM  =      1041.82494915
  ---------------------------------------------------
  free energy    TOTEN  =       -49.86703642 eV

  energy without entropy =      -49.86703642  energy(sigma->0) =      -49.86703642


--------------------------------------------------------------------------------------------------------


  average scaling for gradient   1.8558


 average (electrostatic) potential at core
  the test charge radii are     0.5770  0.4325  0.5902
  (the norm of the test charge is              1.0000)
       1 -87.8272       2 -87.3047       3 -88.3940       4 -48.4105       5 -47.8065
       6 -47.7231       7 -50.1116       8-106.0151       9-104.2856



 E-fermi :  -6.3516     XC(G=0):  -0.2001     alpha+bet : -0.0573

 Fermi energy:        -6.3515717965

 k-point     1 :       0.0000    0.0000    0.0000
  band No.  band energies     occupation 
      1     -26.1065      2.00000
      2     -20.5160      2.00000
      3     -19.4835      2.00000
      4     -15.4464      2.00000
      5     -14.9302      2.00000
      6     -13.7330      2.00000
      7     -11.2990      2.00000
      8     -10.8731      2.00000
      9     -10.8496      2.00000
     10     -10.1484      2.00000
     11      -7.1870      2.00000
     12      -6.6757      2.00000
     13      -6.4125      2.00000
     14      -1.1893      0.00000
     15      -1.0540      0.00000
     16      -0.4229      0.00000
     17      -0.2004      0.00000
     18      -0.0605      0.00000
     19       0.0496      0.00000
     20       0.0879      0.00000
     21       0.1856      0.00000
     22       0.2496      0.00000
     23       0.2899      0.00000
     24       0.3737      0.00000
     25       0.3868      0.00000
     26       0.4129      0.00000
     27       0.4197      0.00000
     28       0.4468      0.00000
     29       0.4886      0.00000
     30       0.5496      0.00000
     31       0.5620      0.00000
     32       0.6093      0.00000
     33       0.6173      0.00000
     34       0.6254      0.00000
     35       0.6791      0.00000
     36       0.7225      0.00000
     37       0.7645      0.00000
     38       0.7745      0.00000
     39       0.8028      0.00000
     40       0.8231      0.00000
     41       0.8427      0.00000
     42       0.8704      0.00000
     43       0.9167      0.00000
     44       0.9444      0.00000
     45       0.9741      0.00000
     46       1.0004      0.00000
     47       1.0204      0.00000
     48       1.0484      0.00000
     49       1.1096      0.00000
     50       1.1676      0.00000
     51       1.2377      0.00000
     52       1.3007      0.00000
     53       1.3202      0.00000
     54       1.3234      0.00000
     55       1.3476      0.00000
     56       1.3714      0.00000
     57       1.3783      0.00000
     58       1.4285      0.00000
     59       1.4375      0.00000
     60       1.4519      0.00000
     61       1.4724      0.00000
     62       1.4738      0.00000
     63       1.4864      0.00000
     64       1.5065      0.00000
     65       1.5108      0.00000
     66       1.5305      0.00000
     67       1.5370      0.00000
     68       1.5435      0.00000
     69       1.5529      0.00000
     70       1.5545      0.00000
     71       1.5599      0.00000
     72       1.5633      0.00000
     73       1.6234      0.00000
     74       1.6584      0.00000
     75       1.6812      0.00000
     76       1.6857      0.00000
     77       1.7065      0.00000
     78       1.7167      0.00000
     79       1.7236      0.00000
     80       1.7533      0.00000
     81       1.7599      0.00000
     82       1.7802      0.00000
     83       1.7894      0.00000
     84       1.8076      0.00000
     85       1.8086      0.00000
     86       1.8166      0.00000
     87       1.8236      0.00000
     88       1.8331      0.00000
     89       1.8352      0.00000
     90       1.8426      0.00000
     91       1.8459      0.00000
     92       1.8513      0.00000
     93       1.8610      0.00000
     94       1.8663      0.00000
     95       1.8799      0.00000
     96       1.8819      0.00000
     97       1.9773      0.00000
     98       2.0517      0.00000
     99       2.0653      0.00000
    100       2.1871      0.00000
    101       2.2402      0.00000
    102       2.2633      0.00000
    103       2.2813      0.00000
    104       2.2985      0.00000
    105       2.3323      0.00000
    106       2.3512      0.00000
    107       2.3634      0.00000
    108       2.3786      0.00000
    109       2.4199      0.00000
    110       2.4288      0.00000
    111       2.4574      0.00000
    112       2.4866      0.00000
    113       2.5188      0.00000
    114       2.5565      0.00000
    115       2.5758      0.00000
    116       2.5830      0.00000
    117       2.6006      0.00000
    118       2.6198      0.00000
    119       2.6276      0.00000
    120       2.6423      0.00000
    121       2.6501      0.00000
    122       2.6578      0.00000
    123       2.7080      0.00000
    124       2.7213      0.00000
    125       2.7240      0.00000
    126       2.7288      0.00000
    127       2.7419      0.00000
    128       2.7510      0.00000
    129       2.7590      0.00000
    130       2.7636      0.00000
    131       2.7689      0.00000
    132       2.7700      0.00000
    133       2.7758      0.00000
    134       2.7798      0.00000
    135       2.7850      0.00000
    136       2.7861      0.00000
    137       2.7970      0.00000
    138       2.7998      0.00000
    139       2.8611      0.00000
    140       2.8758      0.00000
    141       2.8977      0.00000
    142       2.9032      0.00000
    143       2.9096      0.00000
    144       2.9207      0.00000
    145       2.9377      0.00000
    146       2.9430      0.00000
    147       2.9799      0.00000
    148       2.9878      0.00000
    149       2.9907      0.00000
    150       3.0062      0.00000
    151       3.0097      0.00000
    152       3.0165      0.00000
    153       3.0267      0.00000
    154       3.0329      0.00000
    155       3.0357      0.00000
    156       3.0530      0.00000
    157       3.0707      0.00000
    158       3.0746      0.00000
    159       3.0789      0.00000
    160       3.0866      0.00000
    161       3.0876      0.00000
    162       3.0920      0.00000
    163       3.1514      0.00000
    164       3.1719      0.00000
    165       3.2337      0.00000
    166       3.2429      0.00000
    167       3.2654      0.00000
    168       3.2819      0.00000
    169       3.2971      0.00000
    170       3.3050      0.00000
    171       3.3104      0.00000
    172       3.3169      0.00000
    173       3.3257      0.00000
    174       3.3346      0.00000
    175       3.3348      0.00000
    176       3.3369      0.00000
    177       3.3415      0.00000
    178       3.3430      0.00000
    179       3.3527      0.00000
    180       3.3564      0.00000
    181       3.3717      0.00000
    182       3.3759      0.00000
    183       3.3884      0.00000
    184       3.3963      0.00000
    185       3.3987      0.00000
    186       3.4008      0.00000
    187       3.4518      0.00000
    188       3.4644      0.00000
    189       3.5142      0.00000
    190       3.5370      0.00000
    191       3.5616      0.00000
    192       3.5831      0.00000
    193       3.6112      0.00000
    194       3.6262      0.00000
    195       3.6338      0.00000
    196       3.6588      0.00000
    197       3.6738      0.00000
    198       3.6927      0.00000
    199       3.7144      0.00000
    200       3.7338      0.00000
    201       3.7971      0.00000
    202       3.8130      0.00000
    203       3.8135      0.00000
    204       3.8616      0.00000
    205       3.8759      0.00000
    206       3.8895      0.00000
    207       3.9160      0.00000
    208       3.9210      0.00000
    209       3.9503      0.00000
    210       3.9618      0.00000
    211       3.9707      0.00000
    212       3.9730      0.00000
    213       3.9809      0.00000
    214       3.9882      0.00000
    215       3.9920      0.00000
    216       4.0016      0.00000
    217       4.0062      0.00000
    218       4.0080      0.00000
    219       4.0204      0.00000
    220       4.0355      0.00000
    221       4.0400      0.00000
    222       4.0917      0.00000
    223       4.1117      0.00000
    224       4.1222      0.00000
    225       4.1502      0.00000
    226       4.1717      0.00000
    227       4.1803      0.00000
    228       4.1920      0.00000
    229       4.2008      0.00000
    230       4.2053      0.00000
    231       4.2137      0.00000
    232       4.2183      0.00000
    233       4.2324      0.00000
    234       4.2436      0.00000
    235       4.2462      0.00000
    236       4.2517      0.00000
    237       4.2529      0.00000
    238       4.2568      0.00000
    239       4.2648      0.00000
    240       4.2697      0.00000
    241       4.2774      0.00000
    242       4.2812      0.00000
    243       4.2863      0.00000
    244       4.2958      0.00000
    245       4.3033      0.00000
    246       4.3075      0.00000
    247       4.3124      0.00000
    248       4.3139      0.00000
    249       4.3154      0.00000
    250       4.3174      0.00000
    251       4.3185      0.00000
    252       4.3256      0.00000
    253       4.3276      0.00000
    254       4.3329      0.00000
    255       4.3349      0.00000
    256       4.3366      0.00000
    257       4.3401      0.00000
    258       4.3423      0.00000
    259       4.3512      0.00000
    260       4.3524      0.00000
    261       4.3542      0.00000
    262       4.3543      0.00000
    263       4.3564      0.00000
    264       4.3648      0.00000
    265       4.3658      0.00000
    266       4.3702      0.00000
    267       4.3760      0.00000
    268       4.3780      0.00000
    269       4.4500      0.00000
    270       4.5327      0.00000
    271       4.5474      0.00000
    272       4.6147      0.00000
    273       4.6587      0.00000
    274       4.7220      0.00000
    275       4.7829      0.00000
    276       4.8273      0.00000
    277       4.8566      0.00000
    278       4.9156      0.00000
    279       4.9430      0.00000
    280       4.9718      0.00000
    281       5.0031      0.00000
    282       5.0307      0.00000
    283       5.0569      0.00000
    284       5.0626      0.00000
    285       5.0790      0.00000
    286       5.0831      0.00000
    287       5.0870      0.00000
    288       5.1092      0.00000
    289       5.1197      0.00000
    290       5.1293      0.00000
    291       5.1388      0.00000
    292       5.1531      0.00000
    293       5.1611      0.00000
    294       5.1710      0.00000
    295       5.1798      0.00000
    296       5.1848      0.00000
    297       5.1890      0.00000
    298       5.2020      0.00000
    299       5.2133      0.00000
    300       5.2187      0.00000
[...]
      5.869305  6.667108  5.854808    -0.267124    0.199834    0.294357  
      4.984389  5.681421  5.353738    -0.144290    0.073096    0.127799  
      5.721511  4.984838  4.411683    -0.163072   -0.180935   -0.091722  
      5.471817  4.153901  3.775130     0.009919   -0.056897   -0.055199  
      3.961651  5.504167  5.636292    -0.061320   -0.112616   -0.074748  
      5.682772  7.416393  6.606442    -0.469298   -0.078011    0.132152  
      7.754342  5.311280  3.826872     0.124244    0.118309    0.051985  
      6.959993  5.561479  4.393791     0.192329    0.110544    0.016102  
      7.076469  6.601284  5.274934     0.445736   -0.161215   -0.336672  

  10 f  =   33.739754 THz   211.993124 2PiTHz 1125.437035 cm-1   139.536346 meV
             X         Y         Z           dx          dy          dz
      5.869305  6.667108  5.854808     0.021317   -0.227449   -0.212665  
      4.984389  5.681421  5.353738     0.370128   -0.004907   -0.163923  
      5.721511  4.984838  4.411683    -0.099643    0.190738    0.213792  
      5.471817  4.153901  3.775130    -0.425510    0.057869    0.235619  
      3.961651  5.504167  5.636292     0.105482   -0.182784   -0.209831  
      5.682772  7.416393  6.606442    -0.220108   -0.156107   -0.045685  
      7.754342  5.311280  3.826872    -0.037525    0.078448    0.086086  
      6.959993  5.561479  4.393791    -0.139743    0.260588    0.293786  
      7.076469  6.601284  5.274934     0.024008   -0.167855   -0.160681  

  11 f  =   32.932853 THz   206.923218 2PiTHz 1098.521730 cm-1   136.199275 meV
             X         Y         Z           dx          dy          dz
      5.869305  6.667108  5.854808    -0.248833   -0.063933    0.050357  
      4.984389  5.681421  5.353738     0.232372    0.176164    0.057530  
      5.721511  4.984838  4.411683     0.369412    0.240980    0.056444  
      5.471817  4.153901  3.775130     0.333059    0.077815   -0.074145  
      3.961651  5.504167  5.636292     0.071443    0.020094   -0.013352  
      5.682772  7.416393  6.606442    -0.336052   -0.114544    0.041863  
      7.754342  5.311280  3.826872    -0.279972   -0.308715   -0.155293  
      6.959993  5.561479  4.393791    -0.357757   -0.225731   -0.048016  
      7.076469  6.601284  5.274934     0.087193   -0.014398   -0.050590  

  12 f  =   31.061204 THz   195.163301 2PiTHz 1036.090245 cm-1   128.458761 meV
             X         Y         Z           dx          dy          dz
      5.869305  6.667108  5.854808     0.143156    0.290489    0.198303  
      4.984389  5.681421  5.353738    -0.124186   -0.235202   -0.157164  
      5.721511  4.984838  4.411683     0.020358    0.055473    0.040850  
      5.471817  4.153901  3.775130     0.040032    0.016716   -0.002419  
      3.961651  5.504167  5.636292    -0.072051   -0.549025   -0.460308  
      5.682772  7.416393  6.606442     0.250481    0.163247    0.038840  
      7.754342  5.311280  3.826872    -0.144468   -0.120468   -0.044948  
      6.959993  5.561479  4.393791    -0.241872   -0.057995    0.052403  
      7.076469  6.601284  5.274934     0.185584    0.086254   -0.002996  

  13 f  =   29.557801 THz   185.717140 2PiTHz  985.942108 cm-1   122.241187 meV
             X         Y         Z           dx          dy          dz
      5.869305  6.667108  5.854808     0.133233    0.028759   -0.032190  
      4.984389  5.681421  5.353738    -0.024762    0.007138    0.016764  
      5.721511  4.984838  4.411683     0.083062   -0.075580   -0.103464  
      5.471817  4.153901  3.775130     0.443109   -0.012960   -0.203310  
      3.961651  5.504167  5.636292    -0.000109    0.094742    0.086021  
      5.682772  7.416393  6.606442     0.218909    0.069601   -0.031199  
      7.754342  5.311280  3.826872    -0.045537    0.125690    0.132394  
      6.959993  5.561479  4.393791    -0.244409    0.350954    0.419842  
      7.076469  6.601284  5.274934    -0.097791   -0.388221   -0.305468  

  14 f  =   27.469536 THz   172.596182 2PiTHz  916.285078 cm-1   113.604820 meV
             X         Y         Z           dx          dy          dz
      5.869305  6.667108  5.854808    -0.188835   -0.006878    0.074664  
      4.984389  5.681421  5.353738    -0.180655    0.103030    0.170108  
      5.721511  4.984838  4.411683     0.270050    0.379714    0.223595  
      5.471817  4.153901  3.775130    -0.032507    0.111352    0.114030  
      3.961651  5.504167  5.636292    -0.067334   -0.171047   -0.123362  
      5.682772  7.416393  6.606442     0.178632    0.080297   -0.003831  
      7.754342  5.311280  3.826872     0.121241    0.019776   -0.034650  
      6.959993  5.561479  4.393791     0.357974   -0.041725   -0.191892  
      7.076469  6.601284  5.274934    -0.319168   -0.410006   -0.229379  

  15 f  =   27.166265 THz   170.690677 2PiTHz  906.169061 cm-1   112.350594 meV
             X         Y         Z           dx          dy          dz
      5.869305  6.667108  5.854808     0.063081   -0.350434   -0.340865  
      4.984389  5.681421  5.353738    -0.529969   -0.169371    0.076182  
      5.721511  4.984838  4.411683    -0.032692    0.246852    0.235485  
      5.471817  4.153901  3.775130     0.161120    0.075363   -0.002601  
      3.961651  5.504167  5.636292    -0.150856    0.008554    0.074844  
      5.682772  7.416393  6.606442    -0.015963   -0.115869   -0.097521  
      7.754342  5.311280  3.826872    -0.082670   -0.110748   -0.062943  
      6.959993  5.561479  4.393791     0.086935    0.135410    0.083757  
      7.076469  6.601284  5.274934     0.399576    0.155628   -0.033045  

  16 f  =   26.173560 THz   164.453325 2PiTHz  873.055972 cm-1   108.245096 meV
             X         Y         Z           dx          dy          dz
      5.869305  6.667108  5.854808    -0.115567    0.239750   -0.268848  
      4.984389  5.681421  5.353738     0.093460   -0.195131    0.217693  
      5.721511  4.984838  4.411683    -0.037951    0.078650   -0.087446  
      5.471817  4.153901  3.775130     0.067628   -0.139950    0.156273  
      3.961651  5.504167  5.636292    -0.137698    0.285710   -0.318625  
      5.682772  7.416393  6.606442     0.214838   -0.447284    0.498820  
      7.754342  5.311280  3.826872     0.004766   -0.010404    0.011404  
      6.959993  5.561479  4.393791     0.010422   -0.021554    0.024528  
      7.076469  6.601284  5.274934     0.005490   -0.009474    0.011056  

  17 f  =   24.670108 THz   155.006860 2PiTHz  822.906224 cm-1   102.027322 meV
             X         Y         Z           dx          dy          dz
      5.869305  6.667108  5.854808    -0.075005    0.155687   -0.173559  
      4.984389  5.681421  5.353738    -0.067826    0.143166   -0.159630  
      5.721511  4.984838  4.411683     0.085814   -0.178882    0.199144  
      5.471817  4.153901  3.775130    -0.164721    0.340101   -0.379584  
      3.961651  5.504167  5.636292     0.154891   -0.320711    0.358180  
      5.682772  7.416393  6.606442     0.152750   -0.319513    0.356481  
      7.754342  5.311280  3.826872     0.037786   -0.078418    0.087542  
      6.959993  5.561479  4.393791     0.007304   -0.015681    0.016893  
      7.076469  6.601284  5.274934    -0.002305    0.005349   -0.005340  

  18 f  =   22.026569 THz   138.397014 2PiTHz  734.727251 cm-1    91.094528 meV
             X         Y         Z           dx          dy          dz
      5.869305  6.667108  5.854808    -0.010675    0.022620   -0.025009  
      4.984389  5.681421  5.353738    -0.046005    0.097060   -0.108364  
      5.721511  4.984838  4.411683    -0.118740    0.246181   -0.275364  
      5.471817  4.153901  3.775130     0.193755   -0.402904    0.449786  
      3.961651  5.504167  5.636292     0.186023   -0.385487    0.430613  
      5.682772  7.416393  6.606442     0.048401   -0.101904    0.113669  
      7.754342  5.311280  3.826872     0.040391   -0.083894    0.093657  
      6.959993  5.561479  4.393791     0.031220   -0.065427    0.072651  
      7.076469  6.601284  5.274934     0.007029   -0.014129    0.015973  

  19 f  =   19.939684 THz   125.284729 2PiTHz  665.116262 cm-1    82.463869 meV
             X         Y         Z           dx          dy          dz
      5.869305  6.667108  5.854808     0.141284   -0.293429    0.327431  
      4.984389  5.681421  5.353738    -0.027206    0.056539   -0.062990  
      5.721511  4.984838  4.411683    -0.045182    0.093957   -0.104891  
      5.471817  4.153901  3.775130    -0.031693    0.065622   -0.073217  
      3.961651  5.504167  5.636292    -0.048714    0.101206   -0.112818  
      5.682772  7.416393  6.606442     0.055002   -0.114235    0.127491  
      7.754342  5.311280  3.826872     0.141826   -0.293726    0.328363  
      6.959993  5.561479  4.393791     0.094085   -0.194809    0.217523  
      7.076469  6.601284  5.274934    -0.188735    0.391527   -0.437450  

  20 f  =   18.592777 THz   116.821863 2PiTHz  620.188283 cm-1    76.893513 meV
             X         Y         Z           dx          dy          dz
      5.869305  6.667108  5.854808    -0.097669    0.202519   -0.226025  
      4.984389  5.681421  5.353738     0.170563   -0.353959    0.395178  
      5.721511  4.984838  4.411683    -0.140230    0.291052   -0.324939  
      5.471817  4.153901  3.775130    -0.109020    0.226200   -0.252522  
      3.961651  5.504167  5.636292     0.053483   -0.111002    0.123878  
      5.682772  7.416393  6.606442    -0.088596    0.183943   -0.205313  
      7.754342  5.311280  3.826872     0.094860   -0.196479    0.219615  
      6.959993  5.561479  4.393791     0.059913   -0.124367    0.138637  
      7.076469  6.601284  5.274934     0.015314   -0.032201    0.035893  

  21 f  =   14.304759 THz    89.879451 2PiTHz  477.155395 cm-1    59.159703 meV
             X         Y         Z           dx          dy          dz
      5.869305  6.667108  5.854808    -0.000013    0.000524   -0.000747  
      4.984389  5.681421  5.353738     0.000065    0.000349   -0.000357  
      5.721511  4.984838  4.411683     0.056593   -0.117622    0.130999  
      5.471817  4.153901  3.775130     0.038413   -0.080281    0.089636  
      3.961651  5.504167  5.636292    -0.022482    0.046890   -0.052159  
      5.682772  7.416393  6.606442    -0.014633    0.030460   -0.034040  
      7.754342  5.311280  3.826872     0.229232   -0.474947    0.530810  
      6.959993  5.561479  4.393791    -0.177637    0.368864   -0.412175  
      7.076469  6.601284  5.274934     0.064928   -0.134613    0.149663  

  22 f  =    0.903073 THz     5.674174 2PiTHz   30.123265 cm-1     3.734807 meV
             X         Y         Z           dx          dy          dz
      5.869305  6.667108  5.854808     0.386856    0.154911   -0.077671  
      4.984389  5.681421  5.353738     0.075815    0.261933    0.261524  
      5.721511  4.984838  4.411683    -0.280132   -0.012429    0.186126  
      5.471817  4.153901  3.775130    -0.171117   -0.014279    0.103102  
      3.961651  5.504167  5.636292     0.030504    0.144908    0.150149  
      5.682772  7.416393  6.606442     0.204109    0.084825   -0.039450  
      7.754342  5.311280  3.826872    -0.101375   -0.142845   -0.095125  
      6.959993  5.561479  4.393791    -0.183526   -0.281538   -0.193237  
      7.076469  6.601284  5.274934     0.258991   -0.176308   -0.375648  

  23 f  =    0.262306 THz     1.648119 2PiTHz    8.749595 cm-1     1.084811 meV
             X         Y         Z           dx          dy          dz
      5.869305  6.667108  5.854808    -0.142624    0.095213   -0.295895  
      4.984389  5.681421  5.353738     0.091928   -0.321170    0.108862  
      5.721511  4.984838  4.411683     0.218935   -0.452226    0.304998  
      5.471817  4.153901  3.775130     0.116073   -0.214365    0.176740  
      3.961651  5.504167  5.636292     0.045635   -0.143752    0.068547  
      5.682772  7.416393  6.606442    -0.085449    0.089025   -0.157716  
      7.754342  5.311280  3.826872     0.026317   -0.030265    0.015957  
      6.959993  5.561479  4.393791     0.066078   -0.132141    0.022673  
      7.076469  6.601284  5.274934    -0.176037    0.236543   -0.380483  

  24 f  =    0.216702 THz     1.361581 2PiTHz    7.228411 cm-1     0.896208 meV
             X         Y         Z           dx          dy          dz
      5.869305  6.667108  5.854808    -0.260971    0.351622   -0.391168  
      4.984389  5.681421  5.353738    -0.262524    0.344170   -0.373984  
      5.721511  4.984838  4.411683    -0.176664    0.146353   -0.160444  
      5.471817  4.153901  3.775130    -0.042086    0.019885   -0.020618  
      3.961651  5.504167  5.636292    -0.091488    0.133648   -0.143269  
      5.682772  7.416393  6.606442    -0.090535    0.137745   -0.152822  
      7.754342  5.311280  3.826872    -0.018576   -0.028425    0.026723  
      6.959993  5.561479  4.393791    -0.140264    0.052998   -0.069510  
      7.076469  6.601284  5.274934    -0.194816    0.185930   -0.219220  

  25 f/i=    0.061719 THz     0.387789 2PiTHz    2.058708 cm-1     0.255247 meV
             X         Y         Z           dx          dy          dz
      5.869305  6.667108  5.854808     0.211611    0.357957    0.019901  
      4.984389  5.681421  5.353738     0.269717    0.264962    0.100253  
      5.721511  4.984838  4.411683     0.308261    0.236327    0.151703  
      5.471817  4.153901  3.775130     0.102918    0.049512    0.062698  
      3.961651  5.504167  5.636292     0.081251    0.064949    0.034040  
      5.682772  7.416393  6.606442     0.048851    0.116964   -0.010913  
      7.754342  5.311280  3.826872     0.082630    0.090732    0.034149  
      6.959993  5.561479  4.393791     0.294868    0.334912    0.109861  
      7.076469  6.601284  5.274934     0.230358    0.416785    0.021855  

  26 f/i=    0.134325 THz     0.843991 2PiTHz    4.480609 cm-1     0.555524 meV
             X         Y         Z           dx          dy          dz
      5.869305  6.667108  5.854808     0.222631   -0.167983   -0.256292  
      4.984389  5.681421  5.353738     0.227195   -0.113445   -0.371707  
      5.721511  4.984838  4.411683     0.246794   -0.033995   -0.415094  
      5.471817  4.153901  3.775130     0.074157    0.007769   -0.143894  
      3.961651  5.504167  5.636292     0.062798   -0.037359   -0.120176  
      5.682772  7.416393  6.606442     0.060244   -0.067817   -0.055663  
      7.754342  5.311280  3.826872     0.076781    0.000201   -0.094854  
      6.959993  5.561479  4.393791     0.273056   -0.047720   -0.353335  
      7.076469  6.601284  5.274934     0.257224   -0.136302   -0.246618  

  27 f/i=    0.429694 THz     2.699848 2PiTHz   14.333054 cm-1     1.777071 meV
             X         Y         Z           dx          dy          dz
      5.869305  6.667108  5.854808    -0.018053   -0.094331    0.131178  
      4.984389  5.681421  5.353738     0.031833   -0.186492    0.224596  
      5.721511  4.984838  4.411683    -0.117926    0.145184   -0.137823  
      5.471817  4.153901  3.775130    -0.041323    0.061105   -0.061993  
      3.961651  5.504167  5.636292     0.045454   -0.130902    0.147686  
      5.682772  7.416393  6.606442     0.017357   -0.079144    0.095205  
      7.754342  5.311280  3.826872    -0.106944    0.196892   -0.206621  
      6.959993  5.561479  4.393791    -0.264516    0.442243   -0.453003  
      7.076469  6.601284  5.274934    -0.201355    0.289828   -0.281473  


 ELASTIC MODULI CONTR FROM IONIC RELAXATION (kBar)
 Direction    XX          YY          ZZ          XY          YZ          ZX
 --------------------------------------------------------------------------------
 XX         -33.9014     -3.3668     -4.6556     -5.6305     -0.5917      9.5774
 YY          -3.3668    -13.7248     -8.9457     -3.4705    -10.7945     -1.6539
 ZZ          -4.6556     -8.9457    -10.6894      3.4079     -9.4883      5.0686
 XY          -5.6305     -3.4705      3.4079     -9.3685      0.9331     -5.9610
 YZ          -0.5917    -10.7945     -9.4883      0.9331    -10.0716      1.0934
 ZX           9.5774     -1.6539      5.0686     -5.9610      1.0934     -9.4765
 --------------------------------------------------------------------------------



--------------------------------------------------------------------------------------------------------


  LATTYP: Found a simple cubic cell.
 ALAT       =    22.0000000000
  
  Lattice vectors:
  
 A1 = (  22.0000000000,   0.0000000000,   0.0000000000)
 A2 = (   0.0000000000,  22.0000000000,   0.0000000000)
 A3 = (   0.0000000000,   0.0000000000,  22.0000000000)


Analysis of symmetry for initial positions (statically):
=====================================================================
 Subroutine PRICEL returns:
 Original cell was already a primitive cell.
 

 Routine SETGRP: Setting up the symmetry group for a 
 simple cubic supercell.


 Subroutine GETGRP returns: Found  1 space group operations
 (whereof  1 operations were pure point group operations)
 out of a pool of 48 trial point group operations.


The static configuration has the point symmetry C_1 .


Analysis of symmetry for dynamics (positions and initial velocities):
=====================================================================
 Subroutine PRICEL returns:
 Original cell was already a primitive cell.
 

 Routine SETGRP: Setting up the symmetry group for a 
 simple cubic supercell.


 Subroutine GETGRP returns: Found  1 space group operations
 (whereof  1 operations were pure point group operations)
 out of a pool of 48 trial point group operations.


The dynamic configuration has the point symmetry C_1 .


 Subroutine INISYM returns: Found  1 space group operations
 (whereof  1 operations are pure point group operations),
 and found     1 'primitive' translations


 KPOINTS: auto                                    

Automatic generation of k-mesh.
 Grid dimensions read from file:
 generate k-points for:    1    1    1

 Generating k-lattice:

  Cartesian coordinates                     Fractional coordinates (reciprocal lattice)
     0.045454545  0.000000000  0.000000000     1.000000000  0.000000000  0.000000000
     0.000000000  0.045454545  0.000000000     0.000000000  1.000000000  0.000000000
     0.000000000  0.000000000  0.045454545     0.000000000  0.000000000  1.000000000

  Length of vectors
     0.045454545  0.045454545  0.045454545

  Shift w.r.t. Gamma in fractional coordinates (k-lattice)
     0.000000000  0.000000000  0.000000000

 
 Subroutine IBZKPT returns following result:
 ===========================================
 
 Found      1 irreducible k-points:
 
 Following reciprocal coordinates:
            Coordinates               Weight
  0.000000  0.000000  0.000000      1.000000
 
 Following cartesian coordinates:
            Coordinates               Weight
  0.000000  0.000000  0.000000      1.000000
 
     LOOP+:  cpu time    595.8280: real time    596.2909
    4ORBIT:  cpu time      0.0000: real time      0.0000

 total amount of memory used by VASP MPI-rank0   809315. kBytes
=======================================================================

   base      :      30000. kBytes
   nonl-proj :     128507. kBytes
   fftplans  :      63753. kBytes
   grid      :     568673. kBytes
   one-center:         13. kBytes
   wavefun   :      18369. kBytes

  
  
 General timing and accounting informations for this job:
 ========================================================
  
                  Total CPU time used (sec):    29796.752
                            User time (sec):    27485.776
                          System time (sec):     2310.977
                         Elapsed time (sec):    29872.179
  
                   Maximum memory used (kb):     1539540.
                   Average memory used (kb):          N/A
  
                          Minor page faults:     92909753
                          Major page faults:          472
                 Voluntary context switches:        78304
