 vasp.6.4.1 05Apr23 (build Jun  6 2023 14:46:38) gamma-only                      
 executed on        HPECrayEX_GCC date 2024.08.22  14:11:55
 running  512 mpi-ranks, with    1 threads/rank, on    4 nodes
 distrk:  each k-point on  256 cores,    2 groups
 distr:  one band on NCORE=  32 cores,    8 groups


--------------------------------------------------------------------------------------------------------


 INCAR:
   ALGO = Conjugate
   KPAR = 2
   NCORE = 32
   ISMEAR = 0
   SIGMA = 0.01
   PREC = Accurate
   EDIFF = 1E-7
   ENCUT = 1000
   ISIF = 0
   METAGGA = R2SCAN
   LASPH = .TRUE.
   SYMPREC = 1E-7
   LWAVE = .FALSE.
   LCHARG = .FALSE.
   LWAVE = .FALSE.
   LCHARG = .FALSE.

 POTCAR:    PAW_PBE C_h 06Feb2004                 
 POTCAR:    PAW_PBE H_h 06Feb2004                 
 POTCAR:    PAW_PBE N_h 06Feb2004                 
 POTCAR:    PAW_PBE C_h 06Feb2004                 
   VRHFIN =C: s2p2                                                                                  
   LEXCH  = PE                                                                                      
   EATOM  =   147.1560 eV,   10.8157 Ry                                                             
                                                                                                    
   TITEL  = PAW_PBE C_h 06Feb2004                                                                   
   LULTRA =        F    use ultrasoft PP ?                                                          
   IUNSCR =        1    unscreen: 0-lin 1-nonlin 2-no                                               
   RPACOR =    0.800    partial core radius                                                         
   POMASS =   12.011; ZVAL   =    4.000    mass and valenz                                          
   RCORE  =    1.100    outmost cutoff radius                                                       
   RWIGS  =    1.630; RWIGS  =    0.863    wigner-seitz radius (au A)                               
   ENMAX  =  700.000; ENMIN  =  500.000 eV                                                          
   ICORE  =        2    local potential                                                             
   LCOR   =        T    correct aug charges                                                         
   LPAW   =        T    paw PP                                                                      
   EAUG   =  946.768                                                                                
   DEXC   =    0.000                                                                                
   RMAX   =    1.128    core radius for proj-oper                                                   
   RAUG   =    1.300    factor for augmentation sphere                                              
   RDEP   =    1.162    radius for radial grids                                                     
   RDEPT  =    1.088    core radius for aug-charge                                                  
                                                                                                    
   Atomic configuration                                                                             
    4 entries                                                                                       
     n  l   j            E        occ.                                                              
     1  0  0.50      -273.3789   2.0000                                                             
     2  0  0.50       -13.7508   2.0000                                                             
     2  1  0.50        -5.2854   2.0000                                                             
     3  2  1.50        -5.4423   0.0000                                                             
   Description                                                                                      
     l       E           TYP  RCUT    TYP  RCUT                                                     
     0    -13.7508458     23  1.100                                                                 
     0     -8.2022199     23  1.100                                                                 
     1     -5.2854383     23  1.100                                                                 
     1      1.1560700     23  1.100                                                                 
     2     -5.4423304      7  1.100                                                                 
  local pseudopotential read in
  partial core-charges read in
  partial kinetic energy density read in
  atomic valenz-charges read in
  non local Contribution for L=           0  read in
    real space projection operators read in
  non local Contribution for L=           0  read in
    real space projection operators read in
  non local Contribution for L=           1  read in
    real space projection operators read in
  non local Contribution for L=           1  read in
    real space projection operators read in
    PAW grid and wavefunctions read in

   number of l-projection  operators is LMAX  =           4
   number of lm-projection operators is LMMAX =           8

 POTCAR:    PAW_PBE H_h 06Feb2004                 
   VRHFIN =H: ultrasoft test                                                                        
   LEXCH  = PE                                                                                      
   EATOM  =    12.4884 eV,    0.9179 Ry                                                             
                                                                                                    
   TITEL  = PAW_PBE H_h 06Feb2004                                                                   
   LULTRA =        F    use ultrasoft PP ?                                                          
   IUNSCR =        0    unscreen: 0-lin 1-nonlin 2-no                                               
   RPACOR =    0.000    partial core radius                                                         
   POMASS =    1.000; ZVAL   =    1.000    mass and valenz                                          
   RCORE  =    0.800    outmost cutoff radius                                                       
   RWIGS  =    0.700; RWIGS  =    0.370    wigner-seitz radius (au A)                               
   ENMAX  =  700.000; ENMIN  =  350.000 eV                                                          
   RCLOC  =    0.701    cutoff for local pot                                                        
   LCOR   =        T    correct aug charges                                                         
   LPAW   =        T    paw PP                                                                      
   EAUG   = 1000.000                                                                                
   RMAX   =    0.819    core radius for proj-oper                                                   
   RAUG   =    1.000    factor for augmentation sphere                                              
   RDEP   =    0.817    radius for radial grids                                                     
   RDEPT  =    0.817    core radius for aug-charge                                                  
                                                                                                    
   Atomic configuration                                                                             
    2 entries                                                                                       
     n  l   j            E        occ.                                                              
     1  0  0.50        -6.4927   1.0000                                                             
     2  1  0.50        -3.4015   0.0000                                                             
   Description                                                                                      
     l       E           TYP  RCUT    TYP  RCUT                                                     
     0     -6.4927493     23  0.800                                                                 
     0      6.8029130     23  0.800                                                                 
     1     -6.8029130     23  0.800                                                                 
  local pseudopotential read in
  atomic valenz-charges read in
  non local Contribution for L=           0  read in
    real space projection operators read in
  non local Contribution for L=           0  read in
    real space projection operators read in
  non local Contribution for L=           1  read in
    real space projection operators read in
    PAW grid and wavefunctions read in

   number of l-projection  operators is LMAX  =           3
   number of lm-projection operators is LMMAX =           5

 POTCAR:    PAW_PBE N_h 06Feb2004                 
   VRHFIN =N: s2p3                                                                                  
   LEXCH  = PE                                                                                      
   EATOM  =   264.5486 eV,   19.4438 Ry                                                             
                                                                                                    
   TITEL  = PAW_PBE N_h 06Feb2004                                                                   
   LULTRA =        F    use ultrasoft PP ?                                                          
   IUNSCR =        1    unscreen: 0-lin 1-nonlin 2-no                                               
   RPACOR =    0.800    partial core radius                                                         
   POMASS =   14.001; ZVAL   =    5.000    mass and valenz                                          
   RCORE  =    1.100    outmost cutoff radius                                                       
   RWIGS  =    1.480; RWIGS  =    0.783    wigner-seitz radius (au A)                               
   ENMAX  =  700.000; ENMIN  =  500.000 eV                                                          
   ICORE  =        2    local potential                                                             
   LCOR   =        T    correct aug charges                                                         
   LPAW   =        T    paw PP                                                                      
   EAUG   =  904.640                                                                                
   DEXC   =    0.000                                                                                
   RMAX   =    1.127    core radius for proj-oper                                                   
   RAUG   =    1.300    factor for augmentation sphere                                              
   RDEP   =    1.115    radius for radial grids                                                     
   RDEPT  =    1.106    core radius for aug-charge                                                  
                                                                                                    
   Atomic configuration                                                                             
    4 entries                                                                                       
     n  l   j            E        occ.                                                              
     1  0  0.50      -384.7179   2.0000                                                             
     2  0  0.50       -18.5828   2.0000                                                             
     2  1  0.50        -7.0898   3.0000                                                             
     3  2  1.50        -6.8029   0.0000                                                             
   Description                                                                                      
     l       E           TYP  RCUT    TYP  RCUT                                                     
     0    -18.5828117     23  1.100                                                                 
     0    -15.0750597     23  1.100                                                                 
     1     -7.0897851     23  1.100                                                                 
     1     -1.9663412     23  1.100                                                                 
     2     -6.8029130      7  1.100                                                                 
  local pseudopotential read in
  partial core-charges read in
  partial kinetic energy density read in
  kinetic energy density of atom read in
  atomic valenz-charges read in
  non local Contribution for L=           0  read in
    real space projection operators read in
  non local Contribution for L=           0  read in
    real space projection operators read in
  non local Contribution for L=           1  read in
    real space projection operators read in
  non local Contribution for L=           1  read in
    real space projection operators read in
    PAW grid and wavefunctions read in

   number of l-projection  operators is LMAX  =           4
   number of lm-projection operators is LMMAX =           8

 -----------------------------------------------------------------------------
|                                                                             |
|               ----> ADVICE to this user running VASP <----                  |
|                                                                             |
|     You have a (more or less) 'large supercell' and for larger cells it     |
|     might be more efficient to use real-space projection operators.         |
|     Therefore, try LREAL= Auto in the INCAR file.                           |
|     Mind: For very accurate calculation, you might also keep the            |
|     reciprocal projection scheme (i.e. LREAL=.FALSE.).                      |
|                                                                             |
 -----------------------------------------------------------------------------

  PAW_PBE C_h 06Feb2004                 :
 energy of atom  1       EATOM= -147.1560
 kinetic energy error for atom=    0.0031 (will be added to EATOM!!)
  PAW_PBE H_h 06Feb2004                 :
 energy of atom  2       EATOM=  -12.4884
 kinetic energy error for atom=    0.0006 (will be added to EATOM!!)
  PAW_PBE N_h 06Feb2004                 :
 energy of atom  3       EATOM= -264.5486
 kinetic energy error for atom=    0.0081 (will be added to EATOM!!)


 POSCAR:  C  H  N
  positions in cartesian coordinates
  No initial velocities read in

 METAGGA = R2SCAN                                      LMAXTAU =  6    LMIXTAU =  F

 exchange correlation table for  LEXCH =        8
   RHO(1)=    0.500       N(1)  =     2000
   RHO(2)=  100.500       N(2)  =     4000

 VTST: version 4.1, (05/19/21)

 CHAIN: initializing optimizer
 
 OPT: Using VASP Dynamics algorithm
 CHAIN: Read ICHAIN            0

 POSCAR:  C  H  N
  positions in cartesian coordinates
  No initial velocities read in



--------------------------------------------------------------------------------------------------------


 ion  position               nearest neighbor table
   1  0.528  0.462  0.452-   7 1.10   8 1.10  20 1.48  19 1.48
   2  0.450  0.435  0.500-   9 1.10  10 1.10  19 1.48  21 1.48
   3  0.528  0.462  0.548-  11 1.10  12 1.10  22 1.48  19 1.48
   4  0.450  0.517  0.452-  14 1.10  13 1.10  20 1.48  21 1.48
   5  0.528  0.545  0.500-  15 1.10  16 1.10  22 1.48  20 1.48
   6  0.450  0.517  0.548-  18 1.10  17 1.10  22 1.48  21 1.48
   7  0.572  0.462  0.452-   1 1.10
   8  0.513  0.441  0.416-   1 1.10
   9  0.435  0.414  0.464-   2 1.10
  10  0.435  0.414  0.536-   2 1.10
  11  0.572  0.462  0.548-   3 1.10
  12  0.513  0.441  0.584-   3 1.10
  13  0.435  0.497  0.416-   4 1.10
  14  0.435  0.559  0.452-   4 1.10
  15  0.572  0.545  0.500-   5 1.10
  16  0.513  0.586  0.500-   5 1.10
  17  0.435  0.497  0.584-   6 1.10
  18  0.435  0.559  0.548-   6 1.10
  19  0.509  0.433  0.500-   2 1.48   1 1.48   3 1.48
  20  0.509  0.518  0.451-   4 1.48   1 1.48   5 1.48
  21  0.428  0.490  0.500-   2 1.48   4 1.48   6 1.48
  22  0.509  0.518  0.549-   6 1.48   3 1.48   5 1.48

  LATTYP: Found a simple cubic cell.
 ALAT       =    25.0000000000
  
  Lattice vectors:
  
 A1 = (  25.0000000000,   0.0000000000,   0.0000000000)
 A2 = (   0.0000000000,  25.0000000000,   0.0000000000)
 A3 = (   0.0000000000,   0.0000000000,  25.0000000000)


Analysis of symmetry for initial positions (statically):
=====================================================================
 Subroutine PRICEL returns:
 Original cell was already a primitive cell.
 

 Routine SETGRP: Setting up the symmetry group for a 
 simple cubic supercell.


 Subroutine GETGRP returns: Found  1 space group operations
 (whereof  1 operations were pure point group operations)
 out of a pool of 48 trial point group operations.


The static configuration has the point symmetry C_1 .


Analysis of symmetry for dynamics (positions and initial velocities):
=====================================================================
 Subroutine PRICEL returns:
 Original cell was already a primitive cell.
 

 Routine SETGRP: Setting up the symmetry group for a 
 simple cubic supercell.


 Subroutine GETGRP returns: Found  1 space group operations
 (whereof  1 operations were pure point group operations)
 out of a pool of 48 trial point group operations.


The dynamic configuration has the point symmetry C_1 .


 Subroutine INISYM returns: Found  1 space group operations
 (whereof  1 operations are pure point group operations),
 and found     1 'primitive' translations


----------------------------------------------------------------------------------------

                                     Primitive cell                                     

  volume of cell :   15625.0000

  direct lattice vectors                    reciprocal lattice vectors
    25.000000000  0.000000000  0.000000000     0.040000000  0.000000000  0.000000000
     0.000000000 25.000000000  0.000000000     0.000000000  0.040000000  0.000000000
     0.000000000  0.000000000 25.000000000     0.000000000  0.000000000  0.040000000

  length of vectors
    25.000000000 25.000000000 25.000000000     0.040000000  0.040000000  0.040000000

  position of ions in fractional coordinates (direct lattice)
     0.527544000  0.462106000  0.452254000
     0.449584000  0.434546000  0.499998000
     0.527544000  0.462106000  0.547742000
     0.449588000  0.517234000  0.452250000
     0.527544000  0.544802000  0.499998000
     0.449588000  0.517234000  0.547750000
     0.571600000  0.461930000  0.451950000
     0.513180000  0.441278000  0.416178000
     0.434724000  0.413542000  0.464230000
     0.434724000  0.413542000  0.535766000
     0.571600000  0.461930000  0.548046000
     0.513180000  0.441278000  0.583818000
     0.434724000  0.496754000  0.416178000
     0.434724000  0.558710000  0.451950000
     0.571600000  0.545154000  0.499998000
     0.513180000  0.586458000  0.499998000
     0.434724000  0.496754000  0.583822000
     0.434724000  0.558710000  0.548046000
     0.508616000  0.432942000  0.499998000
     0.508620000  0.518034000  0.450866000
     0.428400000  0.489674000  0.499998000
     0.508620000  0.518034000  0.549126000

  ion indices of the primitive-cell ions
   primitive index   ion index
                 1           1
                 2           2
                 3           3
                 4           4
                 5           5
                 6           6
                 7           7
                 8           8
                 9           9
                10          10
                11          11
                12          12
                13          13
                14          14
                15          15
                16          16
                17          17
                18          18
                19          19
                20          20
                21          21
                22          22

----------------------------------------------------------------------------------------



 KPOINTS: auto                                    

Automatic generation of k-mesh.
 Grid dimensions read from file:
 generate k-points for:    1    1    1

 Generating k-lattice:

  Cartesian coordinates                     Fractional coordinates (reciprocal lattice)
     0.040000000  0.000000000  0.000000000     1.000000000  0.000000000  0.000000000
     0.000000000  0.040000000  0.000000000     0.000000000  1.000000000  0.000000000
     0.000000000  0.000000000  0.040000000     0.000000000  0.000000000  1.000000000

  Length of vectors
     0.040000000  0.040000000  0.040000000

  Shift w.r.t. Gamma in fractional coordinates (k-lattice)
     0.000000000  0.000000000  0.000000000

 
 Subroutine IBZKPT returns following result:
 ===========================================
 
 Found      1 irreducible k-points:
 
 Following reciprocal coordinates:
            Coordinates               Weight
  0.000000  0.000000  0.000000      1.000000
 
 Following cartesian coordinates:
            Coordinates               Weight
  0.000000  0.000000  0.000000      1.000000
 


--------------------------------------------------------------------------------------------------------




 Dimension of arrays:
   k-points           NKPTS =      1   k-points in BZ     NKDIM =      1   number of bands    NBANDS=     40
   number of dos      NEDOS =    301   number of ions     NIONS =     22
   non local maximal  LDIM  =      4   non local SUM 2l+1 LMDIM =      8
   total plane-waves  NPLWV = ******
   max r-space proj   IRMAX =      1   max aug-charges    IRDMAX=   9146
   dimension x,y,z NGX =   270 NGY =  270 NGZ =  270
   dimension x,y,z NGXF=   540 NGYF=  540 NGZF=  540
   support grid    NGXF=   540 NGYF=  540 NGZF=  540
   ions per type =               6  12   4
   NGX,Y,Z   is equivalent  to a cutoff of  17.95, 17.95, 17.95 a.u.
   NGXF,Y,Z  is equivalent  to a cutoff of  35.91, 35.91, 35.91 a.u.

 SYSTEM =  unknown system                          
 POSCAR =   C  H  N                                

 Startparameter for this run:
   NWRITE =      2    write-flag & timer
   PREC   = accura    normal or accurate (medium, high low for compatibility)
   ISTART =      0    job   : 0-new  1-cont  2-samecut
   ICHARG =      2    charge: 1-file 2-atom 10-const
   ISPIN  =      1    spin polarized calculation?
   LNONCOLLINEAR =      F non collinear calculations
   LSORBIT =      F    spin-orbit coupling
   INIWAV =      1    electr: 0-lowe 1-rand  2-diag
   LASPH  =      T    aspherical Exc in radial PAW
 Electronic Relaxation 1
   ENCUT  = 1000.0 eV  73.50 Ry    8.57 a.u.  64.46 64.46 64.46*2*pi/ulx,y,z
   ENINI  = 1000.0     initial cutoff
   ENAUG  = 1000.0 eV  augmentation charge cutoff
   NELM   =     60;   NELMIN=  2; NELMDL= -5     # of ELM steps 
   EDIFF  = 0.1E-06   stopping-criterion for ELM
   LREAL  =      F    real-space projection
   NLSPLINE    = F    spline interpolate recip. space projectors
   LCOMPAT=      F    compatible to vasp.4.4
   GGA_COMPAT  = T    GGA compatible to vasp.4.4-vasp.4.6
   LMAXPAW     = -100 max onsite density
   LMAXMIX     =    2 max onsite mixed and CHGCAR
   VOSKOWN=      0    Vosko Wilk Nusair interpolation
   ROPT   =    0.00000   0.00000   0.00000
 Ionic relaxation
   EDIFFG = 0.1E-05   stopping-criterion for IOM
   NSW    =      0    number of steps for IOM
   NBLOCK =      1;   KBLOCK =      1    inner block; outer block 
   IBRION =     -1    ionic relax: 0-MD 1-quasi-New 2-CG
   NFREE  =      0    steps in history (QN), initial steepest desc. (CG)
   ISIF   =      0    stress and relaxation
   IWAVPR =     10    prediction:  0-non 1-charg 2-wave 3-comb
   ISYM   =      2    0-nonsym 1-usesym 2-fastsym
   LCORR  =      T    Harris-Foulkes like correction to forces

   POTIM  = 0.5000    time-step for ionic-motion
   TEIN   =    0.0    initial temperature
   TEBEG  =    0.0;   TEEND  =   0.0 temperature during run
   SMASS  =  -3.00    Nose mass-parameter (am)
   estimated Nose-frequenzy (Omega)   =  0.10E-29 period in steps = 0.13E+47 mass=  -0.143E-25a.u.
   SCALEE = 1.0000    scale energy and forces
   NPACO  =    256;   APACO  = 10.0  distance and # of slots for P.C.
   PSTRESS=    0.0 pullay stress

  Mass of Ions in am
   POMASS =  12.01  1.00 14.00
  Ionic Valenz
   ZVAL   =   4.00  1.00  5.00
  Atomic Wigner-Seitz radii
   RWIGS  =  -1.00 -1.00 -1.00
  virtual crystal weights 
   VCA    =   1.00  1.00  1.00
   NELECT =      56.0000    total number of electrons
   NUPDOWN=      -1.0000    fix difference up-down

 DOS related values:
   EMIN   =  10.00;   EMAX   =-10.00  energy-range for DOS
   EFERMI =   0.00;   METHOD = LEGACY      
   ISMEAR =     0;   SIGMA  =   0.01  broadening in eV -4-tet -1-fermi 0-gaus

 Electronic relaxation 2 (details)
   IALGO  =     58    algorithm
   LDIAG  =      T    sub-space diagonalisation (order eigenvalues)
   LSUBROT=      F    optimize rotation matrix (better conditioning)
   TURBO    =      0    0=normal 1=particle mesh
   IRESTART =      0    0=no restart 2=restart with 2 vectors
   NREBOOT  =      0    no. of reboots
   NMIN     =      0    reboot dimension
   EREF     =   0.00    reference energy to select bands
   IMIX   =      4    mixing-type and parameters
     AMIX     =   0.40;   BMIX     =  1.00
     AMIX_MAG =   1.60;   BMIX_MAG =  1.00
     AMIN     =   0.10
     WC   =   100.;   INIMIX=   1;  MIXPRE=   1;  MAXMIX= -45

 Intra band minimization:
   WEIMIN = 0.0000     energy-eigenvalue tresh-hold
   EBREAK =  0.63E-09  absolut break condition
   DEPER  =   0.30     relativ break condition  

   TIME   =   0.40     timestep for ELM

  volume/ion in A,a.u.               =     710.23      4792.85
  Fermi-wavevector in a.u.,A,eV,Ry     =   0.250533  0.473438  0.853991  0.062767
  Thomas-Fermi vector in A             =   1.067299

 Write flags
   LWAVE        =      F    write WAVECAR
   LDOWNSAMPLE  =      F    k-point downsampling of WAVECAR
   LCHARG       =      F    write CHGCAR
   LVTOT        =      F    write LOCPOT, total local potential
   LVHAR        =      F    write LOCPOT, Hartree potential only
   LELF         =      F    write electronic localiz. function (ELF)
   LORBIT       =      0    0 simple, 1 ext, 2 COOP (PROOUT), +10 PAW based schemes


 Dipole corrections
   LMONO  =      F    monopole corrections only (constant potential shift)
   LDIPOL =      F    correct potential (dipole corrections)
   IDIPOL =      0    1-x, 2-y, 3-z, 4-all directions 
   EPSILON=  1.0000000 bulk dielectric constant

 Exchange correlation treatment:
   GGA     =    --    GGA type
   LEXCH   =     8    internal setting for exchange type
   LIBXC   =     F    Libxc                    
   VOSKOWN =     0    Vosko Wilk Nusair interpolation
   LHFCALC =     F    Hartree Fock is set to
   LHFONE  =     F    Hartree Fock one center treatment
   AEXX    =    0.0000 exact exchange contribution

 Linear response parameters
   LEPSILON=     F    determine dielectric tensor
   LRPA    =     F    only Hartree local field effects (RPA)
   LNABLA  =     F    use nabla operator in PAW spheres
   LVEL    =     F    velocity operator in full k-point grid
   CSHIFT  =0.1000    complex shift for real part using Kramers Kronig
   OMEGAMAX=  -1.0    maximum frequency
   DEG_THRESHOLD= 0.2000000E-02 threshold for treating states as degnerate
   RTIME   =   -0.100 relaxation time in fs
  (WPLASMAI=    0.000 imaginary part of plasma frequency in eV, 0.658/RTIME)
   DFIELD  = 0.0000000 0.0000000 0.0000000 field for delta impulse in time

  Optional k-point grid parameters
   LKPOINTS_OPT  =     F    use optional k-point grid
   KPOINTS_OPT_MODE=     1    mode for optional k-point grid

 Orbital magnetization related:
   ORBITALMAG=     F  switch on orbital magnetization
   LCHIMAG   =     F  perturbation theory with respect to B field
   DQ        =  0.001000  dq finite difference perturbation B field
   LLRAUG    =     F  two centre corrections for induced B field
   LBONE     =     F  B-component reconstruction in AE one-centre
   LVGVCALC  =     T  calculate vGv susceptibility
   LVGVAPPL  =     F  apply vGv susceptibility instead of pGv for G=0

 Random number generation:
   RANDOM_GENERATOR = DEFAULT
   PCG_SEED         = not used


--------------------------------------------------------------------------------------------------------


 Static calculation
 charge density and potential will be updated during run
 non-spin polarized calculation
 Conjugate gradient for all bands (Freysoldt, et al. PRB 79, 241103 (2009))
 preconditioned conjugated gradient                                        
 perform sub-space diagonalisation
    before iterative eigenvector-optimisation
 modified Broyden-mixing scheme, WC =      100.0
 initial mixing is a Kerker type mixing with AMIX =  0.4000 and BMIX =      1.0000
 Hartree-type preconditioning will be used
 using additional bands           12
 reciprocal scheme for non local part
 use partial core corrections
 no Harris-corrections to forces 
 use gradient corrections 
 use of overlap-Matrix (Vanderbilt PP)
 Gauss-broadening in eV      SIGMA  =   0.01


--------------------------------------------------------------------------------------------------------


  energy-cutoff  :     1000.00
  volume of cell :    15625.00
      direct lattice vectors                 reciprocal lattice vectors
    25.000000000  0.000000000  0.000000000     0.040000000  0.000000000  0.000000000
     0.000000000 25.000000000  0.000000000     0.000000000  0.040000000  0.000000000
     0.000000000  0.000000000 25.000000000     0.000000000  0.000000000  0.040000000

  length of vectors
    25.000000000 25.000000000 25.000000000     0.040000000  0.040000000  0.040000000



 k-points in units of 2pi/SCALE and weight: auto                                    
   0.00000000  0.00000000  0.00000000       1.000

 k-points in reciprocal lattice and weights: auto                                    
   0.00000000  0.00000000  0.00000000       1.000

 position of ions in fractional coordinates (direct lattice) 
   0.52754400  0.46210600  0.45225400
   0.44958400  0.43454600  0.49999800
   0.52754400  0.46210600  0.54774200
   0.44958800  0.51723400  0.45225000
   0.52754400  0.54480200  0.49999800
   0.44958800  0.51723400  0.54775000
   0.57160000  0.46193000  0.45195000
   0.51318000  0.44127800  0.41617800
   0.43472400  0.41354200  0.46423000
   0.43472400  0.41354200  0.53576600
   0.57160000  0.46193000  0.54804600
   0.51318000  0.44127800  0.58381800
   0.43472400  0.49675400  0.41617800
   0.43472400  0.55871000  0.45195000
   0.57160000  0.54515400  0.49999800
   0.51318000  0.58645800  0.49999800
   0.43472400  0.49675400  0.58382200
   0.43472400  0.55871000  0.54804600
   0.50861600  0.43294200  0.49999800
   0.50862000  0.51803400  0.45086600
   0.42840000  0.48967400  0.49999800
   0.50862000  0.51803400  0.54912600

 position of ions in cartesian coordinates  (Angst):
  13.18860000 11.55265000 11.30635000
  11.23960000 10.86365000 12.49995000
  13.18860000 11.55265000 13.69355000
  11.23970000 12.93085000 11.30625000
  13.18860000 13.62005000 12.49995000
  11.23970000 12.93085000 13.69375000
  14.29000000 11.54825000 11.29875000
  12.82950000 11.03195000 10.40445000
  10.86810000 10.33855000 11.60575000
  10.86810000 10.33855000 13.39415000
  14.29000000 11.54825000 13.70115000
  12.82950000 11.03195000 14.59545000
  10.86810000 12.41885000 10.40445000
  10.86810000 13.96775000 11.29875000
  14.29000000 13.62885000 12.49995000
  12.82950000 14.66145000 12.49995000
  10.86810000 12.41885000 14.59555000
  10.86810000 13.96775000 13.70115000
  12.71540000 10.82355000 12.49995000
  12.71550000 12.95085000 11.27165000
  10.71000000 12.24185000 12.49995000
  12.71550000 12.95085000 13.72815000



--------------------------------------------------------------------------------------------------------


 use parallel FFT for orbitals z direction half grid
 k-point   1 :   0.0000 0.0000 0.0000  plane waves:  561155

 maximum and minimum number of plane-waves per node :     17542    17530

 maximum number of plane-waves:    561155
 maximum index in each direction: 
   IXMAX=   64   IYMAX=   64   IZMAX=   64
   IXMIN=  -64   IYMIN=  -64   IZMIN=    0


 parallel 3D FFT for wavefunctions:
    minimum data exchange during FFTs selected (reduces bandwidth)
 parallel 3D FFT for charge:
    minimum data exchange during FFTs selected (reduces bandwidth)


 total amount of memory used by VASP MPI-rank0   195383. kBytes
=======================================================================

   base      :      30000. kBytes
   nonl-proj :       9539. kBytes
   fftplans  :      41190. kBytes
   grid      :     110444. kBytes
   one-center:          1. kBytes
   wavefun   :       4209. kBytes

     INWAV:  cpu time      0.0001: real time      0.0003
 Broyden mixing: mesh for mixing (old mesh)
   NGX =129   NGY =129   NGZ =129
  (NGX  =540   NGY  =540   NGZ  =540)
  gives a total of ****** points

 initial charge density was supplied:
 charge density of overlapping atoms calculated
 number of electron      56.0000000 magnetization 
 keeping initial charge density in first step


--------------------------------------------------------------------------------------------------------


 Maximum index for augmentation-charges            0 (set IRDMAX)


--------------------------------------------------------------------------------------------------------


 First call to EWALD:  gamma=   0.071
 Maximum number of real-space cells 3x 3x 3
 Maximum number of reciprocal cells 3x 3x 3

    FEWALD:  cpu time      0.0081: real time      0.0082


--------------------------------------- Ionic step        1  -------------------------------------------




--------------------------------------- Iteration      1(   1)  ---------------------------------------


    POTLOK:  cpu time      2.8263: real time      2.8279
    SETDIJ:  cpu time      0.2571: real time      0.2575
    TRIAL :  cpu time      7.4075: real time      7.4122
    CORREC:  cpu time      0.0011: real time      0.0011
    --------------------------------------------
      LOOP:  cpu time     10.5062: real time     10.5131

 eigenvalue-minimisations  :    96
 total energy-change (2. order) : 0.5896902E+03  (-0.1445926E+04)
 number of electron      56.0000000 magnetization 
 augmentation part       56.0000000 magnetization 

 Free energy of the ion-electron system (eV)
  ---------------------------------------------------
  alpha Z        PSCENC =         0.61187337
  Ewald energy   TEWEN  =      6596.92229518
  -Hartree energ DENC   =     -8035.09987111
  -exchange      EXHF   =         0.00000000
  -V(xc)+E(xc)   XCENC  =       183.23393025
  PAW double counting   =      1484.71937310    -1471.34279587
  entropy T*S    EENTRO =        -0.00001356
  eigenvalues    EBANDS =      -260.28735230
  atomic energy  EATOM  =      2090.93278114
  ---------------------------------------------------
  free energy    TOTEN  =       589.69022019 eV

  energy without entropy =      589.69023375  energy(sigma->0) =      589.69022697


--------------------------------------------------------------------------------------------------------




--------------------------------------- Iteration      1(   2)  ---------------------------------------


    TRIAL :  cpu time      9.1271: real time      9.1313
    CORREC:  cpu time      0.0005: real time      0.0005
    --------------------------------------------
      LOOP:  cpu time      9.1426: real time      9.1607

 eigenvalue-minimisations  :   136
 total energy-change (2. order) :-0.2991126E+03  (-0.2820768E+03)
 number of electron      56.0000000 magnetization 
 augmentation part       56.0000000 magnetization 

 Free energy of the ion-electron system (eV)
  ---------------------------------------------------
  alpha Z        PSCENC =         0.61187337
  Ewald energy   TEWEN  =      6596.92229518
  -Hartree energ DENC   =     -8035.09987111
  -exchange      EXHF   =         0.00000000
  -V(xc)+E(xc)   XCENC  =       183.23393025
  PAW double counting   =      1484.71937310    -1471.34279587
  entropy T*S    EENTRO =        -0.00157578
  eigenvalues    EBANDS =      -559.39834533
  atomic energy  EATOM  =      2090.93278114
  ---------------------------------------------------
  free energy    TOTEN  =       290.57766494 eV

  energy without entropy =      290.57924072  energy(sigma->0) =      290.57845283


--------------------------------------------------------------------------------------------------------




--------------------------------------- Iteration      1(   3)  ---------------------------------------


    TRIAL :  cpu time      8.7616: real time      8.7658
    CORREC:  cpu time      0.0001: real time      0.0001
    --------------------------------------------
      LOOP:  cpu time      8.7776: real time      8.7956

 eigenvalue-minimisations  :   128
 total energy-change (2. order) :-0.3256535E+03  (-0.3188360E+03)
 number of electron      56.0000000 magnetization 
 augmentation part       56.0000000 magnetization 

 Free energy of the ion-electron system (eV)
  ---------------------------------------------------
  alpha Z        PSCENC =         0.61187337
  Ewald energy   TEWEN  =      6596.92229518
  -Hartree energ DENC   =     -8035.09987111
  -exchange      EXHF   =         0.00000000
  -V(xc)+E(xc)   XCENC  =       183.23393025
  PAW double counting   =      1484.71937310    -1471.34279587
  entropy T*S    EENTRO =        -0.00000000
  eigenvalues    EBANDS =      -885.05346421
  atomic energy  EATOM  =      2090.93278114
  ---------------------------------------------------
  free energy    TOTEN  =       -35.07587817 eV

  energy without entropy =      -35.07587817  energy(sigma->0) =      -35.07587817


--------------------------------------------------------------------------------------------------------




--------------------------------------- Iteration      1(   4)  ---------------------------------------


    TRIAL :  cpu time      7.7129: real time      7.7169
    CORREC:  cpu time      0.0001: real time      0.0001
    --------------------------------------------
      LOOP:  cpu time      7.7483: real time      7.7525

 eigenvalue-minimisations  :   104
 total energy-change (2. order) :-0.1150707E+03  (-0.1144350E+03)
 number of electron      56.0000000 magnetization 
 augmentation part       56.0000000 magnetization 

 Free energy of the ion-electron system (eV)
  ---------------------------------------------------
  alpha Z        PSCENC =         0.61187337
  Ewald energy   TEWEN  =      6596.92229518
  -Hartree energ DENC   =     -8035.09987111
  -exchange      EXHF   =         0.00000000
  -V(xc)+E(xc)   XCENC  =       183.23393025
  PAW double counting   =      1484.71937310    -1471.34279587
  entropy T*S    EENTRO =        -0.00000000
  eigenvalues    EBANDS =     -1000.12416782
  atomic energy  EATOM  =      2090.93278114
  ---------------------------------------------------
  free energy    TOTEN  =      -150.14658177 eV

  energy without entropy =     -150.14658177  energy(sigma->0) =     -150.14658177


--------------------------------------------------------------------------------------------------------




--------------------------------------- Iteration      1(   5)  ---------------------------------------


    TRIAL :  cpu time      7.3825: real time      7.3868
    CORREC:  cpu time      0.0001: real time      0.0001
    CHARGE:  cpu time      1.2600: real time      1.2624
    --------------------------------------------
      LOOP:  cpu time      8.6588: real time      8.6799

 eigenvalue-minimisations  :    96
 total energy-change (2. order) :-0.1192815E+02  (-0.1190278E+02)
 number of electron      56.0000000 magnetization 
 augmentation part       -0.1184793 magnetization 

 Free energy of the ion-electron system (eV)
  ---------------------------------------------------
  alpha Z        PSCENC =         0.61187337
  Ewald energy   TEWEN  =      6596.92229518
  -Hartree energ DENC   =     -8035.09987111
  -exchange      EXHF   =         0.00000000
  -V(xc)+E(xc)   XCENC  =       183.23393025
  PAW double counting   =      1484.71937310    -1471.34279587
  entropy T*S    EENTRO =        -0.00000000
  eigenvalues    EBANDS =     -1012.05231534
  atomic energy  EATOM  =      2090.93278114
  ---------------------------------------------------
  free energy    TOTEN  =      -162.07472929 eV

  energy without entropy =     -162.07472929  energy(sigma->0) =     -162.07472929


--------------------------------------------------------------------------------------------------------




--------------------------------------- Iteration      1(   6)  ---------------------------------------


    POTLOK:  cpu time      2.8021: real time      2.8035
    SETDIJ:  cpu time      0.2460: real time      0.2460
    TRIAL :  cpu time      6.4514: real time      6.4557
    CORREC:  cpu time      5.9630: real time      5.9668
    CHARGE:  cpu time      1.2279: real time      1.2284
    --------------------------------------------
      LOOP:  cpu time     16.7044: real time     16.7321

 eigenvalue-minimisations  :     0
 total energy-change (2. order) : 0.2962438E+02  (-0.4768018E+01)
 number of electron      56.0000000 magnetization 
 augmentation part       -0.1198000 magnetization 

 Free energy of the ion-electron system (eV)
  ---------------------------------------------------
  alpha Z        PSCENC =         0.61187337
  Ewald energy   TEWEN  =      6596.92229518
  -Hartree energ DENC   =     -8503.41984751
  -exchange      EXHF   =         0.00000000
  -V(xc)+E(xc)   XCENC  =       207.16887244
  PAW double counting   =     18818.73257149   -18806.37853034
  entropy T*S    EENTRO =        -0.00000000
  eigenvalues    EBANDS =      -537.02036501
  atomic energy  EATOM  =      2090.93278114
  ---------------------------------------------------
  free energy    TOTEN  =      -132.45034925 eV

  energy without entropy =     -132.45034925  energy(sigma->0) =     -132.45034925


--------------------------------------------------------------------------------------------------------




--------------------------------------- Iteration      1(   7)  ---------------------------------------


    POTLOK:  cpu time      2.8045: real time      2.8060
    SETDIJ:  cpu time      0.2445: real time      0.2445
    TRIAL :  cpu time      6.4580: real time      6.4615
    CORREC:  cpu time      5.9583: real time      5.9609
    CHARGE:  cpu time      1.2260: real time      1.2264
    --------------------------------------------
      LOOP:  cpu time     16.7221: real time     16.7302

 eigenvalue-minimisations  :     0
 total energy-change (2. order) :-0.4793652E+01  (-0.8099949E+00)
 number of electron      56.0000000 magnetization 
 augmentation part       -0.1325540 magnetization 

 Free energy of the ion-electron system (eV)
  ---------------------------------------------------
  alpha Z        PSCENC =         0.61187337
  Ewald energy   TEWEN  =      6596.92229518
  -Hartree energ DENC   =     -8311.44484877
  -exchange      EXHF   =         0.00000000
  -V(xc)+E(xc)   XCENC  =       200.44483344
  PAW double counting   =     23042.41494641   -23029.26996882
  entropy T*S    EENTRO =        -0.00000000
  eigenvalues    EBANDS =      -727.85591363
  atomic energy  EATOM  =      2090.93278114
  ---------------------------------------------------
  free energy    TOTEN  =      -137.24400168 eV

  energy without entropy =     -137.24400168  energy(sigma->0) =     -137.24400168


--------------------------------------------------------------------------------------------------------




--------------------------------------- Iteration      1(   8)  ---------------------------------------


    POTLOK:  cpu time      2.8088: real time      2.8097
    SETDIJ:  cpu time      0.2448: real time      0.2450
    TRIAL :  cpu time      6.4452: real time      6.4482
    CORREC:  cpu time      5.9609: real time      5.9638
    CHARGE:  cpu time      1.2250: real time      1.2256
    --------------------------------------------
      LOOP:  cpu time     16.7099: real time     16.7225

 eigenvalue-minimisations  :     0
 total energy-change (2. order) :-0.8150694E+00  (-0.2784377E+00)
 number of electron      56.0000000 magnetization 
 augmentation part       -0.1268427 magnetization 

 Free energy of the ion-electron system (eV)
  ---------------------------------------------------
  alpha Z        PSCENC =         0.61187337
  Ewald energy   TEWEN  =      6596.92229518
  -Hartree energ DENC   =     -8315.45464574
  -exchange      EXHF   =         0.00000000
  -V(xc)+E(xc)   XCENC  =       200.09847894
  PAW double counting   =     26200.57813407   -26187.29859681
  entropy T*S    EENTRO =        -0.00000000
  eigenvalues    EBANDS =      -724.44939126
  atomic energy  EATOM  =      2090.93278114
  ---------------------------------------------------
  free energy    TOTEN  =      -138.05907112 eV

  energy without entropy =     -138.05907112  energy(sigma->0) =     -138.05907112


--------------------------------------------------------------------------------------------------------




--------------------------------------- Iteration      1(   9)  ---------------------------------------


    POTLOK:  cpu time      2.8081: real time      2.8098
    SETDIJ:  cpu time      0.2479: real time      0.2479
    TRIAL :  cpu time      6.4409: real time      6.4441
    CORREC:  cpu time      5.9612: real time      5.9644
    CHARGE:  cpu time      1.2257: real time      1.2264
    --------------------------------------------
      LOOP:  cpu time     16.6995: real time     16.7238

 eigenvalue-minimisations  :     0
 total energy-change (2. order) :-0.2778464E+00  (-0.1298102E+00)
 number of electron      56.0000000 magnetization 
 augmentation part       -0.1238102 magnetization 

 Free energy of the ion-electron system (eV)
  ---------------------------------------------------
  alpha Z        PSCENC =         0.61187337
  Ewald energy   TEWEN  =      6596.92229518
  -Hartree energ DENC   =     -8309.04453325
  -exchange      EXHF   =         0.00000000
  -V(xc)+E(xc)   XCENC  =       199.86947748
  PAW double counting   =     27847.88855499   -27834.55216360
  entropy T*S    EENTRO =        -0.00000000
  eigenvalues    EBANDS =      -730.96520280
  atomic energy  EATOM  =      2090.93278114
  ---------------------------------------------------
  free energy    TOTEN  =      -138.33691749 eV

  energy without entropy =     -138.33691749  energy(sigma->0) =     -138.33691749


--------------------------------------------------------------------------------------------------------




--------------------------------------- Iteration      1(  10)  ---------------------------------------


    POTLOK:  cpu time      2.8039: real time      2.8056
    SETDIJ:  cpu time      0.2457: real time      0.2457
    TRIAL :  cpu time      6.4485: real time      6.4522
    CORREC:  cpu time      5.9639: real time      5.9667
    CHARGE:  cpu time      1.2253: real time      1.2263
    --------------------------------------------
      LOOP:  cpu time     16.7209: real time     16.7302

 eigenvalue-minimisations  :     0
 total energy-change (2. order) :-0.1294440E+00  (-0.4436055E-01)
 number of electron      56.0000000 magnetization 
 augmentation part       -0.1218273 magnetization 

 Free energy of the ion-electron system (eV)
  ---------------------------------------------------
  alpha Z        PSCENC =         0.61187337
  Ewald energy   TEWEN  =      6596.92229518
  -Hartree energ DENC   =     -8300.56600476
  -exchange      EXHF   =         0.00000000
  -V(xc)+E(xc)   XCENC  =       199.80045691
  PAW double counting   =     28090.16819578   -28076.84259900
  entropy T*S    EENTRO =        -0.00000000
  eigenvalues    EBANDS =      -739.49336012
  atomic energy  EATOM  =      2090.93278114
  ---------------------------------------------------
  free energy    TOTEN  =      -138.46636151 eV

  energy without entropy =     -138.46636151  energy(sigma->0) =     -138.46636151


--------------------------------------------------------------------------------------------------------




--------------------------------------- Iteration      1(  11)  ---------------------------------------


    POTLOK:  cpu time      2.8078: real time      2.8096
    SETDIJ:  cpu time      0.2424: real time      0.2424
    TRIAL :  cpu time      6.4622: real time      6.4654
    CORREC:  cpu time      5.9615: real time      5.9644
    CHARGE:  cpu time      1.2240: real time      1.2246
    --------------------------------------------
      LOOP:  cpu time     16.7128: real time     16.7372

 eigenvalue-minimisations  :     0
 total energy-change (2. order) :-0.4421331E-01  (-0.1371390E-01)
 number of electron      56.0000000 magnetization 
 augmentation part       -0.1207161 magnetization 

 Free energy of the ion-electron system (eV)
  ---------------------------------------------------
  alpha Z        PSCENC =         0.61187337
  Ewald energy   TEWEN  =      6596.92229518
  -Hartree energ DENC   =     -8299.63781626
  -exchange      EXHF   =         0.00000000
  -V(xc)+E(xc)   XCENC  =       199.83436747
  PAW double counting   =     27668.74876860   -27655.44887135
  entropy T*S    EENTRO =        -0.00000000
  eigenvalues    EBANDS =      -740.47397295
  atomic energy  EATOM  =      2090.93278114
  ---------------------------------------------------
  free energy    TOTEN  =      -138.51057482 eV

  energy without entropy =     -138.51057482  energy(sigma->0) =     -138.51057482


--------------------------------------------------------------------------------------------------------




--------------------------------------- Iteration      1(  12)  ---------------------------------------


    POTLOK:  cpu time      2.8073: real time      2.8087
    SETDIJ:  cpu time      0.2449: real time      0.2451
    TRIAL :  cpu time      6.4496: real time      6.4527
    CORREC:  cpu time      5.9560: real time      5.9591
    CHARGE:  cpu time      1.2277: real time      1.2282
    --------------------------------------------
      LOOP:  cpu time     16.6986: real time     16.7256

 eigenvalue-minimisations  :     0
 total energy-change (2. order) :-0.1369159E-01  (-0.4403420E-02)
 number of electron      56.0000000 magnetization 
 augmentation part       -0.1207422 magnetization 

 Free energy of the ion-electron system (eV)
  ---------------------------------------------------
  alpha Z        PSCENC =         0.61187337
  Ewald energy   TEWEN  =      6596.92229518
  -Hartree energ DENC   =     -8298.60332213
  -exchange      EXHF   =         0.00000000
  -V(xc)+E(xc)   XCENC  =       199.77106506
  PAW double counting   =     27321.26271570   -27307.96973151
  entropy T*S    EENTRO =        -0.00000000
  eigenvalues    EBANDS =      -741.45194320
  atomic energy  EATOM  =      2090.93278114
  ---------------------------------------------------
  free energy    TOTEN  =      -138.52426641 eV

  energy without entropy =     -138.52426641  energy(sigma->0) =     -138.52426641


--------------------------------------------------------------------------------------------------------




--------------------------------------- Iteration      1(  13)  ---------------------------------------


    POTLOK:  cpu time      2.8034: real time      2.8054
    SETDIJ:  cpu time      0.2451: real time      0.2451
    TRIAL :  cpu time      6.4611: real time      6.4647
    CORREC:  cpu time      5.9608: real time      5.9645
    CHARGE:  cpu time      1.2263: real time      1.2268
    --------------------------------------------
      LOOP:  cpu time     16.7092: real time     16.7373

 eigenvalue-minimisations  :     0
 total energy-change (2. order) :-0.4400906E-02  (-0.1778456E-02)
 number of electron      56.0000000 magnetization 
 augmentation part       -0.1209858 magnetization 

 Free energy of the ion-electron system (eV)
  ---------------------------------------------------
  alpha Z        PSCENC =         0.61187337
  Ewald energy   TEWEN  =      6596.92229518
  -Hartree energ DENC   =     -8298.31061254
  -exchange      EXHF   =         0.00000000
  -V(xc)+E(xc)   XCENC  =       199.73113332
  PAW double counting   =     27133.92346734   -27120.63239564
  entropy T*S    EENTRO =        -0.00000000
  eigenvalues    EBANDS =      -741.70720947
  atomic energy  EATOM  =      2090.93278114
  ---------------------------------------------------
  free energy    TOTEN  =      -138.52866732 eV

  energy without entropy =     -138.52866732  energy(sigma->0) =     -138.52866732


--------------------------------------------------------------------------------------------------------




--------------------------------------- Iteration      1(  14)  ---------------------------------------


    POTLOK:  cpu time      2.8042: real time      2.8062
    SETDIJ:  cpu time      0.2452: real time      0.2452
    TRIAL :  cpu time      6.4616: real time      6.4649
    CORREC:  cpu time      5.9600: real time      5.9629
    CHARGE:  cpu time      1.2276: real time      1.2288
    --------------------------------------------
      LOOP:  cpu time     16.7129: real time     16.7401

 eigenvalue-minimisations  :     0
 total energy-change (2. order) :-0.1772423E-02  (-0.8229526E-03)
 number of electron      56.0000000 magnetization 
 augmentation part       -0.1210833 magnetization 

 Free energy of the ion-electron system (eV)
  ---------------------------------------------------
  alpha Z        PSCENC =         0.61187337
  Ewald energy   TEWEN  =      6596.92229518
  -Hartree energ DENC   =     -8299.04705856
  -exchange      EXHF   =         0.00000000
  -V(xc)+E(xc)   XCENC  =       199.74066148
  PAW double counting   =     27044.60670790   -27031.31783443
  entropy T*S    EENTRO =        -0.00000000
  eigenvalues    EBANDS =      -740.97986581
  atomic energy  EATOM  =      2090.93278114
  ---------------------------------------------------
  free energy    TOTEN  =      -138.53043974 eV

  energy without entropy =     -138.53043974  energy(sigma->0) =     -138.53043974


--------------------------------------------------------------------------------------------------------




--------------------------------------- Iteration      1(  15)  ---------------------------------------


    POTLOK:  cpu time      2.8090: real time      2.8104
    SETDIJ:  cpu time      0.2417: real time      0.2420
    TRIAL :  cpu time      6.4651: real time      6.4681
    CORREC:  cpu time      5.9564: real time      5.9592
    CHARGE:  cpu time      1.2260: real time      1.2265
    --------------------------------------------
      LOOP:  cpu time     16.7316: real time     16.7399

 eigenvalue-minimisations  :     0
 total energy-change (2. order) :-0.8222829E-03  (-0.3558726E-03)
 number of electron      56.0000000 magnetization 
 augmentation part       -0.1209683 magnetization 

 Free energy of the ion-electron system (eV)
  ---------------------------------------------------
  alpha Z        PSCENC =         0.61187337
  Ewald energy   TEWEN  =      6596.92229518
  -Hartree energ DENC   =     -8299.01351322
  -exchange      EXHF   =         0.00000000
  -V(xc)+E(xc)   XCENC  =       199.73854410
  PAW double counting   =     27020.17444398   -27006.88477721
  entropy T*S    EENTRO =        -0.00000000
  eigenvalues    EBANDS =      -741.01290936
  atomic energy  EATOM  =      2090.93278114
  ---------------------------------------------------
  free energy    TOTEN  =      -138.53126202 eV

  energy without entropy =     -138.53126202  energy(sigma->0) =     -138.53126202


--------------------------------------------------------------------------------------------------------




--------------------------------------- Iteration      1(  16)  ---------------------------------------


    POTLOK:  cpu time      2.8110: real time      2.8126
    SETDIJ:  cpu time      0.2397: real time      0.2397
    TRIAL :  cpu time      6.4462: real time      6.4493
    CORREC:  cpu time      5.9682: real time      5.9715
    CHARGE:  cpu time      1.2250: real time      1.2256
    --------------------------------------------
      LOOP:  cpu time     16.7032: real time     16.7300

 eigenvalue-minimisations  :     0
 total energy-change (2. order) :-0.3569016E-03  (-0.1323294E-03)
 number of electron      56.0000000 magnetization 
 augmentation part       -0.1208597 magnetization 

 Free energy of the ion-electron system (eV)
  ---------------------------------------------------
  alpha Z        PSCENC =         0.61187337
  Ewald energy   TEWEN  =      6596.92229518
  -Hartree energ DENC   =     -8299.25790590
  -exchange      EXHF   =         0.00000000
  -V(xc)+E(xc)   XCENC  =       199.74653245
  PAW double counting   =     27026.59258855   -27013.30246579
  entropy T*S    EENTRO =        -0.00000000
  eigenvalues    EBANDS =      -740.77731792
  atomic energy  EATOM  =      2090.93278114
  ---------------------------------------------------
  free energy    TOTEN  =      -138.53161892 eV

  energy without entropy =     -138.53161892  energy(sigma->0) =     -138.53161892


--------------------------------------------------------------------------------------------------------




--------------------------------------- Iteration      1(  17)  ---------------------------------------


    POTLOK:  cpu time      2.8097: real time      2.8115
    SETDIJ:  cpu time      0.2429: real time      0.2430
    TRIAL :  cpu time      6.4550: real time      6.4582
    CORREC:  cpu time      5.9631: real time      5.9660
    CHARGE:  cpu time      1.2270: real time      1.2275
    --------------------------------------------
      LOOP:  cpu time     16.7120: real time     16.7373

 eigenvalue-minimisations  :     0
 total energy-change (2. order) :-0.1334037E-03  (-0.4205296E-04)
 number of electron      56.0000000 magnetization 
 augmentation part       -0.1208116 magnetization 

 Free energy of the ion-electron system (eV)
  ---------------------------------------------------
  alpha Z        PSCENC =         0.61187337
  Ewald energy   TEWEN  =      6596.92229518
  -Hartree energ DENC   =     -8299.34761457
  -exchange      EXHF   =         0.00000000
  -V(xc)+E(xc)   XCENC  =       199.75000168
  PAW double counting   =     27041.86851732   -27028.57790890
  entropy T*S    EENTRO =        -0.00000000
  eigenvalues    EBANDS =      -740.69169755
  atomic energy  EATOM  =      2090.93278114
  ---------------------------------------------------
  free energy    TOTEN  =      -138.53175233 eV

  energy without entropy =     -138.53175233  energy(sigma->0) =     -138.53175233


--------------------------------------------------------------------------------------------------------




--------------------------------------- Iteration      1(  18)  ---------------------------------------


    POTLOK:  cpu time      2.8082: real time      2.8101
    SETDIJ:  cpu time      0.2438: real time      0.2438
    TRIAL :  cpu time      6.4411: real time      6.4440
    CORREC:  cpu time      5.9640: real time      5.9667
    CHARGE:  cpu time      1.2244: real time      1.2255
    --------------------------------------------
      LOOP:  cpu time     16.7134: real time     16.7220

 eigenvalue-minimisations  :     0
 total energy-change (2. order) :-0.4268805E-04  (-0.1287793E-04)
 number of electron      56.0000000 magnetization 
 augmentation part       -0.1207865 magnetization 

 Free energy of the ion-electron system (eV)
  ---------------------------------------------------
  alpha Z        PSCENC =         0.61187337
  Ewald energy   TEWEN  =      6596.92229518
  -Hartree energ DENC   =     -8299.28885901
  -exchange      EXHF   =         0.00000000
  -V(xc)+E(xc)   XCENC  =       199.74913148
  PAW double counting   =     27054.84289354   -27041.55188308
  entropy T*S    EENTRO =        -0.00000000
  eigenvalues    EBANDS =      -740.75002763
  atomic energy  EATOM  =      2090.93278114
  ---------------------------------------------------
  free energy    TOTEN  =      -138.53179502 eV

  energy without entropy =     -138.53179502  energy(sigma->0) =     -138.53179502


--------------------------------------------------------------------------------------------------------




--------------------------------------- Iteration      1(  19)  ---------------------------------------


    POTLOK:  cpu time      2.8093: real time      2.8107
    SETDIJ:  cpu time      0.2395: real time      0.2396
    TRIAL :  cpu time      6.4519: real time      6.4560
    CORREC:  cpu time      5.9595: real time      5.9627
    CHARGE:  cpu time      1.2275: real time      1.2281
    --------------------------------------------
      LOOP:  cpu time     16.7076: real time     16.7297

 eigenvalue-minimisations  :     0
 total energy-change (2. order) :-0.1305379E-04  (-0.4119308E-05)
 number of electron      56.0000000 magnetization 
 augmentation part       -0.1207842 magnetization 

 Free energy of the ion-electron system (eV)
  ---------------------------------------------------
  alpha Z        PSCENC =         0.61187337
  Ewald energy   TEWEN  =      6596.92229518
  -Hartree energ DENC   =     -8299.31801256
  -exchange      EXHF   =         0.00000000
  -V(xc)+E(xc)   XCENC  =       199.75077291
  PAW double counting   =     27062.61766783   -27049.32672502
  entropy T*S    EENTRO =        -0.00000000
  eigenvalues    EBANDS =      -740.72246090
  atomic energy  EATOM  =      2090.93278114
  ---------------------------------------------------
  free energy    TOTEN  =      -138.53180807 eV

  energy without entropy =     -138.53180807  energy(sigma->0) =     -138.53180807


--------------------------------------------------------------------------------------------------------




--------------------------------------- Iteration      1(  20)  ---------------------------------------


    POTLOK:  cpu time      2.8087: real time      2.8105
    SETDIJ:  cpu time      0.2404: real time      0.2404
    TRIAL :  cpu time      6.4581: real time      6.4618
    CORREC:  cpu time      5.9608: real time      5.9637
    CHARGE:  cpu time      1.2241: real time      1.2247
    --------------------------------------------
      LOOP:  cpu time     16.7085: real time     16.7323

 eigenvalue-minimisations  :     0
 total energy-change (2. order) :-0.4161644E-05  (-0.1762821E-05)
 number of electron      56.0000000 magnetization 
 augmentation part       -0.1207875 magnetization 

 Free energy of the ion-electron system (eV)
  ---------------------------------------------------
  alpha Z        PSCENC =         0.61187337
  Ewald energy   TEWEN  =      6596.92229518
  -Hartree energ DENC   =     -8299.28497513
  -exchange      EXHF   =         0.00000000
  -V(xc)+E(xc)   XCENC  =       199.75034857
  PAW double counting   =     27066.64912341   -27053.35818258
  entropy T*S    EENTRO =        -0.00000000
  eigenvalues    EBANDS =      -740.75507619
  atomic energy  EATOM  =      2090.93278114
  ---------------------------------------------------
  free energy    TOTEN  =      -138.53181223 eV

  energy without entropy =     -138.53181223  energy(sigma->0) =     -138.53181223


--------------------------------------------------------------------------------------------------------




--------------------------------------- Iteration      1(  21)  ---------------------------------------


    POTLOK:  cpu time      2.8057: real time      2.8073
    SETDIJ:  cpu time      0.2462: real time      0.2462
    TRIAL :  cpu time      6.4544: real time      6.4578
    CORREC:  cpu time      5.9637: real time      5.9665
    CHARGE:  cpu time      1.2257: real time      1.2263
    --------------------------------------------
      LOOP:  cpu time     16.7271: real time     16.7357

 eigenvalue-minimisations  :     0
 total energy-change (2. order) :-0.1587432E-05  (-0.7558410E-06)
 number of electron      56.0000000 magnetization 
 augmentation part       -0.1207987 magnetization 

 Free energy of the ion-electron system (eV)
  ---------------------------------------------------
  alpha Z        PSCENC =         0.61187337
  Ewald energy   TEWEN  =      6596.92229518
  -Hartree energ DENC   =     -8299.28986708
  -exchange      EXHF   =         0.00000000
  -V(xc)+E(xc)   XCENC  =       199.75066544
  PAW double counting   =     27068.61963477   -27055.32875483
  entropy T*S    EENTRO =        -0.00000000
  eigenvalues    EBANDS =      -740.75044181
  atomic energy  EATOM  =      2090.93278114
  ---------------------------------------------------
  free energy    TOTEN  =      -138.53181382 eV

  energy without entropy =     -138.53181382  energy(sigma->0) =     -138.53181382


--------------------------------------------------------------------------------------------------------




--------------------------------------- Iteration      1(  22)  ---------------------------------------


    POTLOK:  cpu time      2.8081: real time      2.8098
    SETDIJ:  cpu time      0.2422: real time      0.2423
    TRIAL :  cpu time      6.4647: real time      6.4674
    CORREC:  cpu time      5.9739: real time      5.9774
    CHARGE:  cpu time      1.2272: real time      1.2280
    --------------------------------------------
      LOOP:  cpu time     16.7301: real time     16.7574

 eigenvalue-minimisations  :     0
 total energy-change (2. order) :-0.5357433E-06  (-0.3131779E-06)
 number of electron      56.0000000 magnetization 
 augmentation part       -0.1208088 magnetization 

 Free energy of the ion-electron system (eV)
  ---------------------------------------------------
  alpha Z        PSCENC =         0.61187337
  Ewald energy   TEWEN  =      6596.92229518
  -Hartree energ DENC   =     -8299.27922013
  -exchange      EXHF   =         0.00000000
  -V(xc)+E(xc)   XCENC  =       199.75027404
  PAW double counting   =     27069.49544909   -27056.20455764
  entropy T*S    EENTRO =        -0.00000000
  eigenvalues    EBANDS =      -740.76070939
  atomic energy  EATOM  =      2090.93278114
  ---------------------------------------------------
  free energy    TOTEN  =      -138.53181436 eV

  energy without entropy =     -138.53181436  energy(sigma->0) =     -138.53181436


--------------------------------------------------------------------------------------------------------




--------------------------------------- Iteration      1(  23)  ---------------------------------------


    POTLOK:  cpu time      2.8078: real time      2.8088
    SETDIJ:  cpu time      0.2454: real time      0.2456
    TRIAL :  cpu time      6.4459: real time      6.4486
    CORREC:  cpu time      5.9574: real time      5.9604
    CHARGE:  cpu time      1.2274: real time      1.2280
    --------------------------------------------
      LOOP:  cpu time     16.6981: real time     16.7230

 eigenvalue-minimisations  :     0
 total energy-change (2. order) :-0.2335364E-06  (-0.1581714E-06)
 number of electron      56.0000000 magnetization 
 augmentation part       -0.1208132 magnetization 

 Free energy of the ion-electron system (eV)
  ---------------------------------------------------
  alpha Z        PSCENC =         0.61187337
  Ewald energy   TEWEN  =      6596.92229518
  -Hartree energ DENC   =     -8299.28280031
  -exchange      EXHF   =         0.00000000
  -V(xc)+E(xc)   XCENC  =       199.75022195
  PAW double counting   =     27069.71962760   -27056.42872354
  entropy T*S    EENTRO =        -0.00000000
  eigenvalues    EBANDS =      -740.75708998
  atomic energy  EATOM  =      2090.93278114
  ---------------------------------------------------
  free energy    TOTEN  =      -138.53181459 eV

  energy without entropy =     -138.53181459  energy(sigma->0) =     -138.53181459


--------------------------------------------------------------------------------------------------------




--------------------------------------- Iteration      1(  24)  ---------------------------------------


    POTLOK:  cpu time      2.8005: real time      2.8021
    SETDIJ:  cpu time      0.2495: real time      0.2495
    TRIAL :  cpu time      6.4468: real time      6.4500
    CORREC:  cpu time      5.9566: real time      5.9594
    CHARGE:  cpu time      1.2308: real time      1.2314
    --------------------------------------------
      LOOP:  cpu time     16.7055: real time     16.7247

 eigenvalue-minimisations  :     0
 total energy-change (2. order) :-0.1470544E-06  (-0.1246594E-06)
 number of electron      56.0000000 magnetization 
 augmentation part       -0.1208149 magnetization 

 Free energy of the ion-electron system (eV)
  ---------------------------------------------------
  alpha Z        PSCENC =         0.61187337
  Ewald energy   TEWEN  =      6596.92229518
  -Hartree energ DENC   =     -8299.28303557
  -exchange      EXHF   =         0.00000000
  -V(xc)+E(xc)   XCENC  =       199.75016372
  PAW double counting   =     27069.64855526   -27056.35763887
  entropy T*S    EENTRO =        -0.00000000
  eigenvalues    EBANDS =      -740.75680897
  atomic energy  EATOM  =      2090.93278114
  ---------------------------------------------------
  free energy    TOTEN  =      -138.53181474 eV

  energy without entropy =     -138.53181474  energy(sigma->0) =     -138.53181474


--------------------------------------------------------------------------------------------------------




--------------------------------------- Iteration      1(  25)  ---------------------------------------


    POTLOK:  cpu time      2.8064: real time      2.8088
    SETDIJ:  cpu time      0.2422: real time      0.2422
    TRIAL :  cpu time      6.4553: real time      6.4582
    CORREC:  cpu time      5.9631: real time      5.9657
    CHARGE:  cpu time      1.2267: real time      1.2277
    --------------------------------------------
      LOOP:  cpu time     16.7098: real time     16.7352

 eigenvalue-minimisations  :     0
 total energy-change (2. order) :-0.1178596E-06  (-0.6700208E-07)
 number of electron      56.0000000 magnetization 
 augmentation part       -0.1208144 magnetization 

 Free energy of the ion-electron system (eV)
  ---------------------------------------------------
  alpha Z        PSCENC =         0.61187337
  Ewald energy   TEWEN  =      6596.92229518
  -Hartree energ DENC   =     -8299.28291401
  -exchange      EXHF   =         0.00000000
  -V(xc)+E(xc)   XCENC  =       199.75015145
  PAW double counting   =     27069.44063110   -27056.14971016
  entropy T*S    EENTRO =        -0.00000000
  eigenvalues    EBANDS =      -740.75692292
  atomic energy  EATOM  =      2090.93278114
  ---------------------------------------------------
  free energy    TOTEN  =      -138.53181485 eV

  energy without entropy =     -138.53181485  energy(sigma->0) =     -138.53181485


--------------------------------------------------------------------------------------------------------




--------------------------------------- Iteration      1(  26)  ---------------------------------------


    POTLOK:  cpu time      2.8020: real time      2.8035
    SETDIJ:  cpu time      0.2473: real time      0.2473
    TRIAL :  cpu time      6.4527: real time      6.4555
    CORREC:  cpu time      5.9629: real time      5.9651
    EDDIAG:  cpu time      1.6698: real time      1.6707
    CHARGE:  cpu time      1.2282: real time      1.2287
    --------------------------------------------
      LOOP:  cpu time     18.3947: real time     18.4028

 eigenvalue-minimisations  :     0
 total energy-change (2. order) :-0.6149639E-07  (-0.3166712E-07)
 number of electron      56.0000000 magnetization 
 augmentation part       -0.1208136 magnetization 

 Free energy of the ion-electron system (eV)
  ---------------------------------------------------
  alpha Z        PSCENC =         0.61187337
  Ewald energy   TEWEN  =      6596.92229518
  -Hartree energ DENC   =     -8299.28425279
  -exchange      EXHF   =         0.00000000
  -V(xc)+E(xc)   XCENC  =       199.75021140
  PAW double counting   =     27069.23329483   -27055.94237808
  entropy T*S    EENTRO =        -0.00000000
  eigenvalues    EBANDS =      -740.75563996
  atomic energy  EATOM  =      2090.93278114
  ---------------------------------------------------
  free energy    TOTEN  =      -138.53181491 eV

  energy without entropy =     -138.53181491  energy(sigma->0) =     -138.53181491


--------------------------------------------------------------------------------------------------------


  average scaling for gradient   0.8527


 average (electrostatic) potential at core
  the test charge radii are     0.5770  0.4325  0.5902
  (the norm of the test charge is              1.0000)
       1 -89.3854       2 -89.3845       3 -89.3855       4 -89.3850       5 -89.3857
       6 -89.3853       7 -47.1959       8 -47.1951       9 -47.1946      10 -47.1946
      11 -47.1960      12 -47.1953      13 -47.1952      14 -47.1949      15 -47.1968
      16 -47.1959      17 -47.1956      18 -47.1951      19-106.2197      20-106.2201
      21-106.2187      22-106.2204



 E-fermi :  -5.2017     XC(G=0):  -0.1223     alpha+bet : -0.0850

 Fermi energy:        -5.2017455118

 k-point     1 :       0.0000    0.0000    0.0000
  band No.  band energies     occupation 
      1     -26.5243      2.00000
      2     -23.3672      2.00000
      3     -23.3665      2.00000
      4     -23.3648      2.00000
      5     -18.2521      2.00000
      6     -18.2521      2.00000
      7     -16.7626      2.00000
      8     -16.7623      2.00000
      9     -16.7619      2.00000
     10     -14.4222      2.00000
     11     -12.4217      2.00000
     12     -12.4216      2.00000
     13     -12.4213      2.00000
     14     -11.9754      2.00000
     15     -11.9751      2.00000
     16     -11.9749      2.00000
     17      -9.6301      2.00000
     18      -9.6297      2.00000
     19      -9.6293      2.00000
     20      -9.4241      2.00000
     21      -9.4239      2.00000
     22      -9.0148      2.00000
     23      -8.9470      2.00000
     24      -8.9467      2.00000
     25      -8.9457      2.00000
     26      -5.2537      2.00000
     27      -5.2535      2.00000
     28      -5.2530      2.00000
     29      -0.0746      0.00000
     30       0.1369      0.00000
     31       0.2753      0.00000
     32       0.2805      0.00000
     33       0.2868      0.00000
     34       0.2945      0.00000
     35       0.3570      0.00000
     36       0.5284      0.00000
     37       0.5576      0.00000
     38       0.5657      0.00000
     39       0.5889      0.00000
     40       0.5913      0.00000


--------------------------------------------------------------------------------------------------------


 soft charge-density along one line, spin component           1
         0         1         2         3         4         5         6         7         8         9
 total charge-density along one line

 pseudopotential strength for first ion, spin component:           1
 12.683  21.343   0.005   0.008  -0.006   0.008   0.014  -0.012
 21.343  35.915   0.008   0.013  -0.011   0.014   0.024  -0.020
  0.005   0.008  -3.256  -0.000  -0.000  -5.832  -0.000  -0.000
  0.008   0.013  -0.000  -3.256  -0.000  -0.000  -5.833  -0.000
 -0.006  -0.011  -0.000  -0.000  -3.256  -0.000  -0.000  -5.833
  0.008   0.014  -5.832  -0.000  -0.000 -10.426  -0.000  -0.000
  0.014   0.024  -0.000  -5.833  -0.000  -0.000 -10.426  -0.000
 -0.012  -0.020  -0.000  -0.000  -5.833  -0.000  -0.000 -10.427
 total augmentation occupancy for first ion, spin component:           1
  9.617  -3.624   0.146   0.251  -0.205  -0.091  -0.158   0.129
 -3.624   1.402  -0.113  -0.195   0.160   0.060   0.105  -0.085
  0.146  -0.113   6.635  -0.056  -0.011  -2.358   0.085   0.030
  0.251  -0.195  -0.056   6.570  -0.018   0.085  -2.260   0.052
 -0.205   0.160  -0.011  -0.018   6.523   0.030   0.052  -2.169
 -0.091   0.060  -2.358   0.085   0.030   0.853  -0.055  -0.020
 -0.158   0.105   0.085  -2.260   0.052  -0.055   0.789  -0.035
  0.129  -0.085   0.030   0.052  -2.169  -0.020  -0.035   0.729


------------------------ aborting loop because EDIFF is reached ----------------------------------------


    FORLOC:  cpu time      0.0938: real time      0.0938
    FORNL :  cpu time      0.1004: real time      0.1014
    FORCOR:  cpu time      2.6219: real time      2.6232
    OFIELD:  cpu time      0.0055: real time      0.0055

 VOLUME and BASIS-vectors are now :
 -----------------------------------------------------------------------------
  energy-cutoff  :     1000.00
  volume of cell :    15625.00
      direct lattice vectors                 reciprocal lattice vectors
    25.000000000  0.000000000  0.000000000     0.040000000  0.000000000  0.000000000
     0.000000000 25.000000000  0.000000000     0.000000000  0.040000000  0.000000000
     0.000000000  0.000000000 25.000000000     0.000000000  0.000000000  0.040000000

  length of vectors
    25.000000000 25.000000000 25.000000000     0.040000000  0.040000000  0.040000000


 FORCES acting on ions:
    Electron-Ion                     Ewald-Force                    Non-Local-Force
 -----------------------------------------------------------------------------------------------
   -.183E+03 0.130E+03 0.225E+03   0.187E+03 -.132E+03 -.228E+03   -.317E+01 0.224E+01 0.387E+01
   0.183E+03 0.259E+03 -.475E-03   -.187E+03 -.264E+03 0.411E-03   0.316E+01 0.447E+01 0.110E-03
   -.183E+03 0.130E+03 -.225E+03   0.187E+03 -.132E+03 0.228E+03   -.317E+01 0.224E+01 -.387E+01
   0.183E+03 -.130E+03 0.225E+03   -.187E+03 0.132E+03 -.228E+03   0.316E+01 -.224E+01 0.387E+01
   -.183E+03 -.259E+03 0.897E-02   0.186E+03 0.264E+03 -.100E-01   -.317E+01 -.447E+01 0.652E-04
   0.183E+03 -.130E+03 -.225E+03   -.187E+03 0.132E+03 0.228E+03   0.316E+01 -.224E+01 -.387E+01
   -.101E+03 0.200E+02 0.347E+02   0.107E+03 -.201E+02 -.348E+02   -.578E+01 0.863E-01 0.150E+00
   -.399E+01 0.544E+02 0.942E+02   0.229E+01 -.570E+02 -.988E+02   0.176E+01 0.275E+01 0.477E+01
   0.527E+02 0.744E+02 0.596E+02   -.545E+02 -.771E+02 -.640E+02   0.201E+01 0.284E+01 0.462E+01
   0.527E+02 0.744E+02 -.596E+02   -.545E+02 -.771E+02 0.640E+02   0.201E+01 0.284E+01 -.462E+01
   -.101E+03 0.200E+02 -.347E+02   0.107E+03 -.201E+02 0.348E+02   -.578E+01 0.863E-01 -.150E+00
   -.399E+01 0.544E+02 -.942E+02   0.229E+01 -.570E+02 0.988E+02   0.176E+01 0.275E+01 -.477E+01
   0.527E+02 0.144E+02 0.942E+02   -.545E+02 -.168E+02 -.987E+02   0.201E+01 0.258E+01 0.477E+01
   0.527E+02 -.888E+02 0.347E+02   -.545E+02 0.939E+02 -.348E+02   0.201E+01 -.542E+01 0.149E+00
   -.101E+03 -.401E+02 0.950E-04   0.107E+03 0.402E+02 -.113E-03   -.578E+01 -.173E+00 0.222E-04
   -.399E+01 -.109E+03 0.682E-04   0.229E+01 0.114E+03 -.135E-03   0.176E+01 -.550E+01 0.949E-05
   0.526E+02 0.144E+02 -.942E+02   -.545E+02 -.168E+02 0.987E+02   0.201E+01 0.258E+01 -.477E+01
   0.527E+02 -.888E+02 -.347E+02   -.545E+02 0.939E+02 0.348E+02   0.201E+01 -.542E+01 -.148E+00
   -.128E+03 0.362E+03 -.254E-03   0.138E+03 -.392E+03 0.746E-04   -.104E+02 0.295E+02 0.208E-03
   -.128E+03 -.181E+03 0.314E+03   0.138E+03 0.196E+03 -.339E+03   -.104E+02 -.148E+02 0.256E+02
   0.384E+03 -.599E-01 -.993E-02   -.415E+03 0.659E-01 0.107E-01   0.313E+02 -.761E-02 0.777E-03
   -.128E+03 -.181E+03 -.314E+03   0.138E+03 0.196E+03 0.339E+03   -.104E+02 -.148E+02 -.255E+02
 -----------------------------------------------------------------------------------------------
   0.220E-01 0.874E-02 -.578E-02   -.284E-13 -.853E-13 0.000E+00   -.254E-01 -.925E-02 0.581E-02


 POSITION                                       TOTAL-FORCE (eV/Angst)
 -----------------------------------------------------------------------------------
     13.18860     11.55265     11.30635        -0.003442     -0.001885     -0.001966
     11.23960     10.86365     12.49995        -0.004931     -0.001910      0.000046
     13.18860     11.55265     13.69355        -0.003330     -0.001680      0.001221
     11.23970     12.93085     11.30625        -0.006063      0.000679      0.002018
     13.18860     13.62005     12.49995        -0.003944      0.000783     -0.000954
     11.23970     12.93085     13.69375        -0.005843      0.000577     -0.005337
     14.29000     11.54825     11.29875        -0.286959      0.017163      0.030307
     12.82950     11.03195     10.40445         0.064944      0.143031      0.248363
     10.86810     10.33855     11.60575         0.114082      0.159828      0.214960
     10.86810     10.33855     13.39415         0.114071      0.159830     -0.214988
     14.29000     11.54825     13.70115        -0.286944      0.017148     -0.030310
     12.82950     11.03195     14.59545         0.064868      0.143285     -0.248341
     10.86810     12.41885     10.40445         0.115066      0.107367      0.247790
     10.86810     13.96775     11.29875         0.114732     -0.265456      0.029668
     14.29000     13.62885     12.49995        -0.287070     -0.035021      0.000003
     12.82950     14.66145     12.49995         0.064465     -0.286161     -0.000058
     10.86810     12.41885     14.59555         0.115444      0.107437     -0.247995
     10.86810     13.96775     13.70115         0.114690     -0.265494     -0.029198
     12.71540     10.82355     12.49995        -0.032827      0.103860      0.000019
     12.71550     12.95085     11.27165        -0.034543     -0.050477      0.091721
     10.71000     12.24185     12.49995         0.108449     -0.001785      0.001553
     12.71550     12.95085     13.72815        -0.034916     -0.051120     -0.088520
 -----------------------------------------------------------------------------------
    total drift:                               -0.003404     -0.000518      0.000026


--------------------------------------------------------------------------------------------------------



  FREE ENERGIE OF THE ION-ELECTRON SYSTEM (eV)
  ---------------------------------------------------
  free  energy   TOTEN  =      -138.53181491 eV

  energy  without entropy=     -138.53181491  energy(sigma->0) =     -138.53181491



--------------------------------------------------------------------------------------------------------


    POTLOK:  cpu time      3.0644: real time      3.0658


--------------------------------------------------------------------------------------------------------


 stress matrix after NEB project (eV)
      0.00000      0.00000      0.00000
      0.00000      0.00000      0.00000
      0.00000      0.00000      0.00000
  FORCES: max atom, RMS     0.293959    0.220360
  FORCE total and by dimension    1.033578    0.287070
  Stress total and by dimension    0.000000    0.000000
     LOOP+:  cpu time    403.4075: real time    403.9031
    4ORBIT:  cpu time      0.0000: real time      0.0000

 total amount of memory used by VASP MPI-rank0   195383. kBytes
=======================================================================

   base      :      30000. kBytes
   nonl-proj :       9539. kBytes
   fftplans  :      41190. kBytes
   grid      :     110444. kBytes
   one-center:          1. kBytes
   wavefun   :       4209. kBytes

  
  
 General timing and accounting informations for this job:
 ========================================================
  
                  Total CPU time used (sec):      434.961
                            User time (sec):      396.034
                          System time (sec):       38.927
                         Elapsed time (sec):      444.820
  
                   Maximum memory used (kb):      465960.
                   Average memory used (kb):          N/A
  
                          Minor page faults:       650007
                          Major page faults:          769
                 Voluntary context switches:         7750
