 vasp.6.4.1 05Apr23 (build Jun  6 2023 14:46:38) gamma-only                      
 executed on        HPECrayEX_GCC date 2024.08.22  14:19:23
 running  512 mpi-ranks, with    1 threads/rank, on    4 nodes
 distrk:  each k-point on  256 cores,    2 groups
 distr:  one band on NCORE=  32 cores,    8 groups


--------------------------------------------------------------------------------------------------------


 INCAR:
   ALGO = Conjugate
   KPAR = 2
   NCORE = 32
   ISMEAR = 0
   SIGMA = 0.01
   PREC = Accurate
   EDIFF = 1E-7
   ENCUT = 1000
   ISIF = 0
   METAGGA = SCAN
   LUSE_VDW = .TRUE.
   BPARAM = 15.7
   LASPH = .TRUE.
   SYMPREC = 1E-7
   NELM = 200
   LWAVE = .FALSE.
   LCHARG = .FALSE.

 POTCAR:    PAW_PBE C_h 06Feb2004                 
 POTCAR:    PAW_PBE H_h 06Feb2004                 
 POTCAR:    PAW_PBE N_h 06Feb2004                 
 -----------------------------------------------------------------------------
|                                                                             |
|               ----> ADVICE to this user running VASP <----                  |
|                                                                             |
|     You have switched on vdW-DFT.                                           |
|     This routine was written and supplied by Jiri Klimes. We recommend      |
|     that you carefully read and cite the following publications:            |
|       J. Klimes, D.R. Bowler, A. Michelides                                 |
|          J. Phys.: Cond Matt. 22 022201 (2010)                              |
|       J. Klimes, D.R. Bowler, A. Michelides                                 |
|          Phys. Rev. B. 83, 195131 (2011)                                    |
|     and references therein.                                                 |
|                                                                             |
 -----------------------------------------------------------------------------

 POTCAR:    PAW_PBE C_h 06Feb2004                 
   VRHFIN =C: s2p2                                                                                  
   LEXCH  = PE                                                                                      
   EATOM  =   147.1560 eV,   10.8157 Ry                                                             
                                                                                                    
   TITEL  = PAW_PBE C_h 06Feb2004                                                                   
   LULTRA =        F    use ultrasoft PP ?                                                          
   IUNSCR =        1    unscreen: 0-lin 1-nonlin 2-no                                               
   RPACOR =    0.800    partial core radius                                                         
   POMASS =   12.011; ZVAL   =    4.000    mass and valenz                                          
   RCORE  =    1.100    outmost cutoff radius                                                       
   RWIGS  =    1.630; RWIGS  =    0.863    wigner-seitz radius (au A)                               
   ENMAX  =  700.000; ENMIN  =  500.000 eV                                                          
   ICORE  =        2    local potential                                                             
   LCOR   =        T    correct aug charges                                                         
   LPAW   =        T    paw PP                                                                      
   EAUG   =  946.768                                                                                
   DEXC   =    0.000                                                                                
   RMAX   =    1.128    core radius for proj-oper                                                   
   RAUG   =    1.300    factor for augmentation sphere                                              
   RDEP   =    1.162    radius for radial grids                                                     
   RDEPT  =    1.088    core radius for aug-charge                                                  
                                                                                                    
   Atomic configuration                                                                             
    4 entries                                                                                       
     n  l   j            E        occ.                                                              
     1  0  0.50      -273.3789   2.0000                                                             
     2  0  0.50       -13.7508   2.0000                                                             
     2  1  0.50        -5.2854   2.0000                                                             
     3  2  1.50        -5.4423   0.0000                                                             
   Description                                                                                      
     l       E           TYP  RCUT    TYP  RCUT                                                     
     0    -13.7508458     23  1.100                                                                 
     0     -8.2022199     23  1.100                                                                 
     1     -5.2854383     23  1.100                                                                 
     1      1.1560700     23  1.100                                                                 
     2     -5.4423304      7  1.100                                                                 
  local pseudopotential read in
  partial core-charges read in
  partial kinetic energy density read in
  atomic valenz-charges read in
  non local Contribution for L=           0  read in
    real space projection operators read in
  non local Contribution for L=           0  read in
    real space projection operators read in
  non local Contribution for L=           1  read in
    real space projection operators read in
  non local Contribution for L=           1  read in
    real space projection operators read in
    PAW grid and wavefunctions read in

   number of l-projection  operators is LMAX  =           4
   number of lm-projection operators is LMMAX =           8

 POTCAR:    PAW_PBE H_h 06Feb2004                 
   VRHFIN =H: ultrasoft test                                                                        
   LEXCH  = PE                                                                                      
   EATOM  =    12.4884 eV,    0.9179 Ry                                                             
                                                                                                    
   TITEL  = PAW_PBE H_h 06Feb2004                                                                   
   LULTRA =        F    use ultrasoft PP ?                                                          
   IUNSCR =        0    unscreen: 0-lin 1-nonlin 2-no                                               
   RPACOR =    0.000    partial core radius                                                         
   POMASS =    1.000; ZVAL   =    1.000    mass and valenz                                          
   RCORE  =    0.800    outmost cutoff radius                                                       
   RWIGS  =    0.700; RWIGS  =    0.370    wigner-seitz radius (au A)                               
   ENMAX  =  700.000; ENMIN  =  350.000 eV                                                          
   RCLOC  =    0.701    cutoff for local pot                                                        
   LCOR   =        T    correct aug charges                                                         
   LPAW   =        T    paw PP                                                                      
   EAUG   = 1000.000                                                                                
   RMAX   =    0.819    core radius for proj-oper                                                   
   RAUG   =    1.000    factor for augmentation sphere                                              
   RDEP   =    0.817    radius for radial grids                                                     
   RDEPT  =    0.817    core radius for aug-charge                                                  
                                                                                                    
   Atomic configuration                                                                             
    2 entries                                                                                       
     n  l   j            E        occ.                                                              
     1  0  0.50        -6.4927   1.0000                                                             
     2  1  0.50        -3.4015   0.0000                                                             
   Description                                                                                      
     l       E           TYP  RCUT    TYP  RCUT                                                     
     0     -6.4927493     23  0.800                                                                 
     0      6.8029130     23  0.800                                                                 
     1     -6.8029130     23  0.800                                                                 
  local pseudopotential read in
  atomic valenz-charges read in
  non local Contribution for L=           0  read in
    real space projection operators read in
  non local Contribution for L=           0  read in
    real space projection operators read in
  non local Contribution for L=           1  read in
    real space projection operators read in
    PAW grid and wavefunctions read in

   number of l-projection  operators is LMAX  =           3
   number of lm-projection operators is LMMAX =           5

 POTCAR:    PAW_PBE N_h 06Feb2004                 
   VRHFIN =N: s2p3                                                                                  
   LEXCH  = PE                                                                                      
   EATOM  =   264.5486 eV,   19.4438 Ry                                                             
                                                                                                    
   TITEL  = PAW_PBE N_h 06Feb2004                                                                   
   LULTRA =        F    use ultrasoft PP ?                                                          
   IUNSCR =        1    unscreen: 0-lin 1-nonlin 2-no                                               
   RPACOR =    0.800    partial core radius                                                         
   POMASS =   14.001; ZVAL   =    5.000    mass and valenz                                          
   RCORE  =    1.100    outmost cutoff radius                                                       
   RWIGS  =    1.480; RWIGS  =    0.783    wigner-seitz radius (au A)                               
   ENMAX  =  700.000; ENMIN  =  500.000 eV                                                          
   ICORE  =        2    local potential                                                             
   LCOR   =        T    correct aug charges                                                         
   LPAW   =        T    paw PP                                                                      
   EAUG   =  904.640                                                                                
   DEXC   =    0.000                                                                                
   RMAX   =    1.127    core radius for proj-oper                                                   
   RAUG   =    1.300    factor for augmentation sphere                                              
   RDEP   =    1.115    radius for radial grids                                                     
   RDEPT  =    1.106    core radius for aug-charge                                                  
                                                                                                    
   Atomic configuration                                                                             
    4 entries                                                                                       
     n  l   j            E        occ.                                                              
     1  0  0.50      -384.7179   2.0000                                                             
     2  0  0.50       -18.5828   2.0000                                                             
     2  1  0.50        -7.0898   3.0000                                                             
     3  2  1.50        -6.8029   0.0000                                                             
   Description                                                                                      
     l       E           TYP  RCUT    TYP  RCUT                                                     
     0    -18.5828117     23  1.100                                                                 
     0    -15.0750597     23  1.100                                                                 
     1     -7.0897851     23  1.100                                                                 
     1     -1.9663412     23  1.100                                                                 
     2     -6.8029130      7  1.100                                                                 
  local pseudopotential read in
  partial core-charges read in
  partial kinetic energy density read in
  kinetic energy density of atom read in
  atomic valenz-charges read in
  non local Contribution for L=           0  read in
    real space projection operators read in
  non local Contribution for L=           0  read in
    real space projection operators read in
  non local Contribution for L=           1  read in
    real space projection operators read in
  non local Contribution for L=           1  read in
    real space projection operators read in
    PAW grid and wavefunctions read in

   number of l-projection  operators is LMAX  =           4
   number of lm-projection operators is LMMAX =           8

 -----------------------------------------------------------------------------
|                                                                             |
|               ----> ADVICE to this user running VASP <----                  |
|                                                                             |
|     You have a (more or less) 'large supercell' and for larger cells it     |
|     might be more efficient to use real-space projection operators.         |
|     Therefore, try LREAL= Auto in the INCAR file.                           |
|     Mind: For very accurate calculation, you might also keep the            |
|     reciprocal projection scheme (i.e. LREAL=.FALSE.).                      |
|                                                                             |
 -----------------------------------------------------------------------------

  PAW_PBE C_h 06Feb2004                 :
 energy of atom  1       EATOM= -147.1560
 kinetic energy error for atom=    0.0031 (will be added to EATOM!!)
  PAW_PBE H_h 06Feb2004                 :
 energy of atom  2       EATOM=  -12.4884
 kinetic energy error for atom=    0.0006 (will be added to EATOM!!)
  PAW_PBE N_h 06Feb2004                 :
 energy of atom  3       EATOM= -264.5486
 kinetic energy error for atom=    0.0081 (will be added to EATOM!!)


 POSCAR:  C  H  N
  positions in cartesian coordinates
  No initial velocities read in

 METAGGA = SCAN                                        LMAXTAU =  6    LMIXTAU =  F

 exchange correlation table for  LEXCH =        8
   RHO(1)=    0.500       N(1)  =     2000
   RHO(2)=  100.500       N(2)  =     4000

 VTST: version 4.1, (05/19/21)

 CHAIN: initializing optimizer
 
 OPT: Using VASP Dynamics algorithm
 CHAIN: Read ICHAIN            0

 POSCAR:  C  H  N
  positions in cartesian coordinates
  No initial velocities read in



--------------------------------------------------------------------------------------------------------


 ion  position               nearest neighbor table
   1  0.528  0.462  0.452-   7 1.10   8 1.10  20 1.48  19 1.48
   2  0.450  0.435  0.500-   9 1.10  10 1.10  19 1.48  21 1.48
   3  0.528  0.462  0.548-  11 1.10  12 1.10  22 1.48  19 1.48
   4  0.450  0.517  0.452-  14 1.10  13 1.10  20 1.48  21 1.48
   5  0.528  0.545  0.500-  15 1.10  16 1.10  22 1.48  20 1.48
   6  0.450  0.517  0.548-  18 1.10  17 1.10  22 1.48  21 1.48
   7  0.572  0.462  0.452-   1 1.10
   8  0.513  0.441  0.416-   1 1.10
   9  0.435  0.414  0.464-   2 1.10
  10  0.435  0.414  0.536-   2 1.10
  11  0.572  0.462  0.548-   3 1.10
  12  0.513  0.441  0.584-   3 1.10
  13  0.435  0.497  0.416-   4 1.10
  14  0.435  0.559  0.452-   4 1.10
  15  0.572  0.545  0.500-   5 1.10
  16  0.513  0.586  0.500-   5 1.10
  17  0.435  0.497  0.584-   6 1.10
  18  0.435  0.559  0.548-   6 1.10
  19  0.509  0.433  0.500-   2 1.48   1 1.48   3 1.48
  20  0.509  0.518  0.451-   4 1.48   1 1.48   5 1.48
  21  0.428  0.490  0.500-   2 1.48   4 1.48   6 1.48
  22  0.509  0.518  0.549-   6 1.48   3 1.48   5 1.48

  LATTYP: Found a simple cubic cell.
 ALAT       =    25.0000000000
  
  Lattice vectors:
  
 A1 = (  25.0000000000,   0.0000000000,   0.0000000000)
 A2 = (   0.0000000000,  25.0000000000,   0.0000000000)
 A3 = (   0.0000000000,   0.0000000000,  25.0000000000)


Analysis of symmetry for initial positions (statically):
=====================================================================
 Subroutine PRICEL returns:
 Original cell was already a primitive cell.
 

 Routine SETGRP: Setting up the symmetry group for a 
 simple cubic supercell.


 Subroutine GETGRP returns: Found  1 space group operations
 (whereof  1 operations were pure point group operations)
 out of a pool of 48 trial point group operations.


The static configuration has the point symmetry C_1 .


Analysis of symmetry for dynamics (positions and initial velocities):
=====================================================================
 Subroutine PRICEL returns:
 Original cell was already a primitive cell.
 

 Routine SETGRP: Setting up the symmetry group for a 
 simple cubic supercell.


 Subroutine GETGRP returns: Found  1 space group operations
 (whereof  1 operations were pure point group operations)
 out of a pool of 48 trial point group operations.


The dynamic configuration has the point symmetry C_1 .


 Subroutine INISYM returns: Found  1 space group operations
 (whereof  1 operations are pure point group operations),
 and found     1 'primitive' translations


----------------------------------------------------------------------------------------

                                     Primitive cell                                     

  volume of cell :   15625.0000

  direct lattice vectors                    reciprocal lattice vectors
    25.000000000  0.000000000  0.000000000     0.040000000  0.000000000  0.000000000
     0.000000000 25.000000000  0.000000000     0.000000000  0.040000000  0.000000000
     0.000000000  0.000000000 25.000000000     0.000000000  0.000000000  0.040000000

  length of vectors
    25.000000000 25.000000000 25.000000000     0.040000000  0.040000000  0.040000000

  position of ions in fractional coordinates (direct lattice)
     0.527544000  0.462106000  0.452254000
     0.449584000  0.434546000  0.499998000
     0.527544000  0.462106000  0.547742000
     0.449588000  0.517234000  0.452250000
     0.527544000  0.544802000  0.499998000
     0.449588000  0.517234000  0.547750000
     0.571600000  0.461930000  0.451950000
     0.513180000  0.441278000  0.416178000
     0.434724000  0.413542000  0.464230000
     0.434724000  0.413542000  0.535766000
     0.571600000  0.461930000  0.548046000
     0.513180000  0.441278000  0.583818000
     0.434724000  0.496754000  0.416178000
     0.434724000  0.558710000  0.451950000
     0.571600000  0.545154000  0.499998000
     0.513180000  0.586458000  0.499998000
     0.434724000  0.496754000  0.583822000
     0.434724000  0.558710000  0.548046000
     0.508616000  0.432942000  0.499998000
     0.508620000  0.518034000  0.450866000
     0.428400000  0.489674000  0.499998000
     0.508620000  0.518034000  0.549126000

  ion indices of the primitive-cell ions
   primitive index   ion index
                 1           1
                 2           2
                 3           3
                 4           4
                 5           5
                 6           6
                 7           7
                 8           8
                 9           9
                10          10
                11          11
                12          12
                13          13
                14          14
                15          15
                16          16
                17          17
                18          18
                19          19
                20          20
                21          21
                22          22

----------------------------------------------------------------------------------------



 KPOINTS: auto                                    

Automatic generation of k-mesh.
 Grid dimensions read from file:
 generate k-points for:    1    1    1

 Generating k-lattice:

  Cartesian coordinates                     Fractional coordinates (reciprocal lattice)
     0.040000000  0.000000000  0.000000000     1.000000000  0.000000000  0.000000000
     0.000000000  0.040000000  0.000000000     0.000000000  1.000000000  0.000000000
     0.000000000  0.000000000  0.040000000     0.000000000  0.000000000  1.000000000

  Length of vectors
     0.040000000  0.040000000  0.040000000

  Shift w.r.t. Gamma in fractional coordinates (k-lattice)
     0.000000000  0.000000000  0.000000000

 
 Subroutine IBZKPT returns following result:
 ===========================================
 
 Found      1 irreducible k-points:
 
 Following reciprocal coordinates:
            Coordinates               Weight
  0.000000  0.000000  0.000000      1.000000
 
 Following cartesian coordinates:
            Coordinates               Weight
  0.000000  0.000000  0.000000      1.000000
 


--------------------------------------------------------------------------------------------------------




 Dimension of arrays:
   k-points           NKPTS =      1   k-points in BZ     NKDIM =      1   number of bands    NBANDS=     40
   number of dos      NEDOS =    301   number of ions     NIONS =     22
   non local maximal  LDIM  =      4   non local SUM 2l+1 LMDIM =      8
   total plane-waves  NPLWV = ******
   max r-space proj   IRMAX =      1   max aug-charges    IRDMAX=   9146
   dimension x,y,z NGX =   270 NGY =  270 NGZ =  270
   dimension x,y,z NGXF=   540 NGYF=  540 NGZF=  540
   support grid    NGXF=   540 NGYF=  540 NGZF=  540
   ions per type =               6  12   4
   NGX,Y,Z   is equivalent  to a cutoff of  17.95, 17.95, 17.95 a.u.
   NGXF,Y,Z  is equivalent  to a cutoff of  35.91, 35.91, 35.91 a.u.

 SYSTEM =  unknown system                          
 POSCAR =   C  H  N                                

 Startparameter for this run:
   NWRITE =      2    write-flag & timer
   PREC   = accura    normal or accurate (medium, high low for compatibility)
   ISTART =      0    job   : 0-new  1-cont  2-samecut
   ICHARG =      2    charge: 1-file 2-atom 10-const
   ISPIN  =      1    spin polarized calculation?
   LNONCOLLINEAR =      F non collinear calculations
   LSORBIT =      F    spin-orbit coupling
   INIWAV =      1    electr: 0-lowe 1-rand  2-diag
   LASPH  =      T    aspherical Exc in radial PAW
 Electronic Relaxation 1
   ENCUT  = 1000.0 eV  73.50 Ry    8.57 a.u.  64.46 64.46 64.46*2*pi/ulx,y,z
   ENINI  = 1000.0     initial cutoff
   ENAUG  = 1000.0 eV  augmentation charge cutoff
   NELM   =    200;   NELMIN=  2; NELMDL= -5     # of ELM steps 
   EDIFF  = 0.1E-06   stopping-criterion for ELM
   LREAL  =      F    real-space projection
   NLSPLINE    = F    spline interpolate recip. space projectors
   LCOMPAT=      F    compatible to vasp.4.4
   GGA_COMPAT  = T    GGA compatible to vasp.4.4-vasp.4.6
   LMAXPAW     = -100 max onsite density
   LMAXMIX     =    2 max onsite mixed and CHGCAR
   VOSKOWN=      0    Vosko Wilk Nusair interpolation
   ROPT   =    0.00000   0.00000   0.00000
 Ionic relaxation
   EDIFFG = 0.1E-05   stopping-criterion for IOM
   NSW    =      0    number of steps for IOM
   NBLOCK =      1;   KBLOCK =      1    inner block; outer block 
   IBRION =     -1    ionic relax: 0-MD 1-quasi-New 2-CG
   NFREE  =      0    steps in history (QN), initial steepest desc. (CG)
   ISIF   =      0    stress and relaxation
   IWAVPR =     10    prediction:  0-non 1-charg 2-wave 3-comb
   ISYM   =      2    0-nonsym 1-usesym 2-fastsym
   LCORR  =      T    Harris-Foulkes like correction to forces

   POTIM  = 0.5000    time-step for ionic-motion
   TEIN   =    0.0    initial temperature
   TEBEG  =    0.0;   TEEND  =   0.0 temperature during run
   SMASS  =  -3.00    Nose mass-parameter (am)
   estimated Nose-frequenzy (Omega)   =  0.10E-29 period in steps = 0.13E+47 mass=  -0.143E-25a.u.
   SCALEE = 1.0000    scale energy and forces
   NPACO  =    256;   APACO  = 10.0  distance and # of slots for P.C.
   PSTRESS=    0.0 pullay stress

  Mass of Ions in am
   POMASS =  12.01  1.00 14.00
  Ionic Valenz
   ZVAL   =   4.00  1.00  5.00
  Atomic Wigner-Seitz radii
   RWIGS  =  -1.00 -1.00 -1.00
  virtual crystal weights 
   VCA    =   1.00  1.00  1.00
   NELECT =      56.0000    total number of electrons
   NUPDOWN=      -1.0000    fix difference up-down

 DOS related values:
   EMIN   =  10.00;   EMAX   =-10.00  energy-range for DOS
   EFERMI =   0.00;   METHOD = LEGACY      
   ISMEAR =     0;   SIGMA  =   0.01  broadening in eV -4-tet -1-fermi 0-gaus

 Electronic relaxation 2 (details)
   IALGO  =     58    algorithm
   LDIAG  =      T    sub-space diagonalisation (order eigenvalues)
   LSUBROT=      F    optimize rotation matrix (better conditioning)
   TURBO    =      0    0=normal 1=particle mesh
   IRESTART =      0    0=no restart 2=restart with 2 vectors
   NREBOOT  =      0    no. of reboots
   NMIN     =      0    reboot dimension
   EREF     =   0.00    reference energy to select bands
   IMIX   =      4    mixing-type and parameters
     AMIX     =   0.40;   BMIX     =  1.00
     AMIX_MAG =   1.60;   BMIX_MAG =  1.00
     AMIN     =   0.10
     WC   =   100.;   INIMIX=   1;  MIXPRE=   1;  MAXMIX= -45

 Intra band minimization:
   WEIMIN = 0.0000     energy-eigenvalue tresh-hold
   EBREAK =  0.63E-09  absolut break condition
   DEPER  =   0.30     relativ break condition  

   TIME   =   0.40     timestep for ELM

  volume/ion in A,a.u.               =     710.23      4792.85
  Fermi-wavevector in a.u.,A,eV,Ry     =   0.250533  0.473438  0.853991  0.062767
  Thomas-Fermi vector in A             =   1.067299

 Write flags
   LWAVE        =      F    write WAVECAR
   LDOWNSAMPLE  =      F    k-point downsampling of WAVECAR
   LCHARG       =      F    write CHGCAR
   LVTOT        =      F    write LOCPOT, total local potential
   LVHAR        =      F    write LOCPOT, Hartree potential only
   LELF         =      F    write electronic localiz. function (ELF)
   LORBIT       =      0    0 simple, 1 ext, 2 COOP (PROOUT), +10 PAW based schemes


 Dipole corrections
   LMONO  =      F    monopole corrections only (constant potential shift)
   LDIPOL =      F    correct potential (dipole corrections)
   IDIPOL =      0    1-x, 2-y, 3-z, 4-all directions 
   EPSILON=  1.0000000 bulk dielectric constant

 Exchange correlation treatment:
   GGA     =    --    GGA type
   LEXCH   =     8    internal setting for exchange type
   LIBXC   =     F    Libxc                    
   VOSKOWN =     0    Vosko Wilk Nusair interpolation
   LHFCALC =     F    Hartree Fock is set to
   LHFONE  =     F    Hartree Fock one center treatment
   AEXX    =    0.0000 exact exchange contribution

 vdW DFT:
   LUSE_VDW   =     T    switch on vdW DFT
   IVDW_NL    =     2    kernel type
   LSPIN_VDW  =     F    use spin-polarized vdW DFT
   Zab_VDW    =-.8491    correlation parameter
   PARAM1     =0.1234
   PARAM2     =1.0000
   PARAM3     =0.0000
   -- rVV10 --
   BPARAM     =15.7000
   CPARAM     = 0.0093

 Linear response parameters
   LEPSILON=     F    determine dielectric tensor
   LRPA    =     F    only Hartree local field effects (RPA)
   LNABLA  =     F    use nabla operator in PAW spheres
   LVEL    =     F    velocity operator in full k-point grid
   CSHIFT  =0.1000    complex shift for real part using Kramers Kronig
   OMEGAMAX=  -1.0    maximum frequency
   DEG_THRESHOLD= 0.2000000E-02 threshold for treating states as degnerate
   RTIME   =   -0.100 relaxation time in fs
  (WPLASMAI=    0.000 imaginary part of plasma frequency in eV, 0.658/RTIME)
   DFIELD  = 0.0000000 0.0000000 0.0000000 field for delta impulse in time

  Optional k-point grid parameters
   LKPOINTS_OPT  =     F    use optional k-point grid
   KPOINTS_OPT_MODE=     1    mode for optional k-point grid

 Orbital magnetization related:
   ORBITALMAG=     F  switch on orbital magnetization
   LCHIMAG   =     F  perturbation theory with respect to B field
   DQ        =  0.001000  dq finite difference perturbation B field
   LLRAUG    =     F  two centre corrections for induced B field
   LBONE     =     F  B-component reconstruction in AE one-centre
   LVGVCALC  =     T  calculate vGv susceptibility
   LVGVAPPL  =     F  apply vGv susceptibility instead of pGv for G=0

 Random number generation:
   RANDOM_GENERATOR = DEFAULT
   PCG_SEED         = not used


--------------------------------------------------------------------------------------------------------


 Static calculation
 charge density and potential will be updated during run
 non-spin polarized calculation
 Conjugate gradient for all bands (Freysoldt, et al. PRB 79, 241103 (2009))
 preconditioned conjugated gradient                                        
 perform sub-space diagonalisation
    before iterative eigenvector-optimisation
 modified Broyden-mixing scheme, WC =      100.0
 initial mixing is a Kerker type mixing with AMIX =  0.4000 and BMIX =      1.0000
 Hartree-type preconditioning will be used
 using additional bands           12
 reciprocal scheme for non local part
 use partial core corrections
 no Harris-corrections to forces 
 use gradient corrections 
 use of overlap-Matrix (Vanderbilt PP)
 Gauss-broadening in eV      SIGMA  =   0.01


--------------------------------------------------------------------------------------------------------


  energy-cutoff  :     1000.00
  volume of cell :    15625.00
      direct lattice vectors                 reciprocal lattice vectors
    25.000000000  0.000000000  0.000000000     0.040000000  0.000000000  0.000000000
     0.000000000 25.000000000  0.000000000     0.000000000  0.040000000  0.000000000
     0.000000000  0.000000000 25.000000000     0.000000000  0.000000000  0.040000000

  length of vectors
    25.000000000 25.000000000 25.000000000     0.040000000  0.040000000  0.040000000



 k-points in units of 2pi/SCALE and weight: auto                                    
   0.00000000  0.00000000  0.00000000       1.000

 k-points in reciprocal lattice and weights: auto                                    
   0.00000000  0.00000000  0.00000000       1.000

 position of ions in fractional coordinates (direct lattice) 
   0.52754400  0.46210600  0.45225400
   0.44958400  0.43454600  0.49999800
   0.52754400  0.46210600  0.54774200
   0.44958800  0.51723400  0.45225000
   0.52754400  0.54480200  0.49999800
   0.44958800  0.51723400  0.54775000
   0.57160000  0.46193000  0.45195000
   0.51318000  0.44127800  0.41617800
   0.43472400  0.41354200  0.46423000
   0.43472400  0.41354200  0.53576600
   0.57160000  0.46193000  0.54804600
   0.51318000  0.44127800  0.58381800
   0.43472400  0.49675400  0.41617800
   0.43472400  0.55871000  0.45195000
   0.57160000  0.54515400  0.49999800
   0.51318000  0.58645800  0.49999800
   0.43472400  0.49675400  0.58382200
   0.43472400  0.55871000  0.54804600
   0.50861600  0.43294200  0.49999800
   0.50862000  0.51803400  0.45086600
   0.42840000  0.48967400  0.49999800
   0.50862000  0.51803400  0.54912600

 position of ions in cartesian coordinates  (Angst):
  13.18860000 11.55265000 11.30635000
  11.23960000 10.86365000 12.49995000
  13.18860000 11.55265000 13.69355000
  11.23970000 12.93085000 11.30625000
  13.18860000 13.62005000 12.49995000
  11.23970000 12.93085000 13.69375000
  14.29000000 11.54825000 11.29875000
  12.82950000 11.03195000 10.40445000
  10.86810000 10.33855000 11.60575000
  10.86810000 10.33855000 13.39415000
  14.29000000 11.54825000 13.70115000
  12.82950000 11.03195000 14.59545000
  10.86810000 12.41885000 10.40445000
  10.86810000 13.96775000 11.29875000
  14.29000000 13.62885000 12.49995000
  12.82950000 14.66145000 12.49995000
  10.86810000 12.41885000 14.59555000
  10.86810000 13.96775000 13.70115000
  12.71540000 10.82355000 12.49995000
  12.71550000 12.95085000 11.27165000
  10.71000000 12.24185000 12.49995000
  12.71550000 12.95085000 13.72815000



--------------------------------------------------------------------------------------------------------


 use parallel FFT for orbitals z direction half grid
 k-point   1 :   0.0000 0.0000 0.0000  plane waves:  561155

 maximum and minimum number of plane-waves per node :     17542    17530

 maximum number of plane-waves:    561155
 maximum index in each direction: 
   IXMAX=   64   IYMAX=   64   IZMAX=   64
   IXMIN=  -64   IYMIN=  -64   IZMIN=    0


 parallel 3D FFT for wavefunctions:
    minimum data exchange during FFTs selected (reduces bandwidth)
 parallel 3D FFT for charge:
    minimum data exchange during FFTs selected (reduces bandwidth)


 total amount of memory used by VASP MPI-rank0   195383. kBytes
=======================================================================

   base      :      30000. kBytes
   nonl-proj :       9539. kBytes
   fftplans  :      41190. kBytes
   grid      :     110444. kBytes
   one-center:          1. kBytes
   wavefun   :       4209. kBytes

     INWAV:  cpu time      0.0001: real time      0.0001
 Broyden mixing: mesh for mixing (old mesh)
   NGX =129   NGY =129   NGZ =129
  (NGX  =540   NGY  =540   NGZ  =540)
  gives a total of ****** points

 initial charge density was supplied:
 charge density of overlapping atoms calculated
 number of electron      56.0000000 magnetization 
 keeping initial charge density in first step


--------------------------------------------------------------------------------------------------------


 Maximum index for augmentation-charges            0 (set IRDMAX)


--------------------------------------------------------------------------------------------------------


 First call to EWALD:  gamma=   0.071
 Maximum number of real-space cells 3x 3x 3
 Maximum number of reciprocal cells 3x 3x 3

    FEWALD:  cpu time      0.0038: real time      0.0039


--------------------------------------- Ionic step        1  -------------------------------------------




--------------------------------------- Iteration      1(   1)  ---------------------------------------


    POTLOK:  cpu time     25.1218: real time     25.1291
    SETDIJ:  cpu time      0.3565: real time      0.3575
    TRIAL :  cpu time      7.4288: real time      7.4328
    CORREC:  cpu time      0.0014: real time      0.0014
    --------------------------------------------
      LOOP:  cpu time     32.9248: real time     32.9374

 eigenvalue-minimisations  :    96
 total energy-change (2. order) : 0.5905617E+03  (-0.1446217E+04)
 number of electron      56.0000000 magnetization 
 augmentation part       56.0000000 magnetization 

 Free energy of the ion-electron system (eV)
  ---------------------------------------------------
  alpha Z        PSCENC =         0.61187337
  Ewald energy   TEWEN  =      6596.92229518
  -Hartree energ DENC   =     -8035.09987111
  -exchange      EXHF   =         0.00000000
  -V(xc)+E(xc)   XCENC  =       182.61103213
  PAW double counting   =      1484.96273403    -1470.99362554
  entropy T*S    EENTRO =        -0.00001171
  eigenvalues    EBANDS =      -259.38546119
  atomic energy  EATOM  =      2090.93278114
  ---------------------------------------------------
  free energy    TOTEN  =       590.56174630 eV

  energy without entropy =      590.56175801  energy(sigma->0) =      590.56175216


--------------------------------------------------------------------------------------------------------




--------------------------------------- Iteration      1(   2)  ---------------------------------------


    TRIAL :  cpu time      9.1440: real time      9.1488
    CORREC:  cpu time      0.0006: real time      0.0006
    --------------------------------------------
      LOOP:  cpu time      9.1605: real time      9.1806

 eigenvalue-minimisations  :   136
 total energy-change (2. order) :-0.2995826E+03  (-0.2824989E+03)
 number of electron      56.0000000 magnetization 
 augmentation part       56.0000000 magnetization 

 Free energy of the ion-electron system (eV)
  ---------------------------------------------------
  alpha Z        PSCENC =         0.61187337
  Ewald energy   TEWEN  =      6596.92229518
  -Hartree energ DENC   =     -8035.09987111
  -exchange      EXHF   =         0.00000000
  -V(xc)+E(xc)   XCENC  =       182.61103213
  PAW double counting   =      1484.96273403    -1470.99362554
  entropy T*S    EENTRO =        -0.00189225
  eigenvalues    EBANDS =      -558.96617945
  atomic energy  EATOM  =      2090.93278114
  ---------------------------------------------------
  free energy    TOTEN  =       290.97914749 eV

  energy without entropy =      290.98103974  energy(sigma->0) =      290.98009362


--------------------------------------------------------------------------------------------------------




--------------------------------------- Iteration      1(   3)  ---------------------------------------


    TRIAL :  cpu time      8.7945: real time      8.7989
    CORREC:  cpu time      0.0002: real time      0.0002
    --------------------------------------------
      LOOP:  cpu time      8.8117: real time      8.8302

 eigenvalue-minimisations  :   128
 total energy-change (2. order) :-0.3271740E+03  (-0.3195435E+03)
 number of electron      56.0000000 magnetization 
 augmentation part       56.0000000 magnetization 

 Free energy of the ion-electron system (eV)
  ---------------------------------------------------
  alpha Z        PSCENC =         0.61187337
  Ewald energy   TEWEN  =      6596.92229518
  -Hartree energ DENC   =     -8035.09987111
  -exchange      EXHF   =         0.00000000
  -V(xc)+E(xc)   XCENC  =       182.61103213
  PAW double counting   =      1484.96273403    -1470.99362554
  entropy T*S    EENTRO =        -0.00000000
  eigenvalues    EBANDS =      -886.14202689
  atomic energy  EATOM  =      2090.93278114
  ---------------------------------------------------
  free energy    TOTEN  =       -36.19480769 eV

  energy without entropy =      -36.19480769  energy(sigma->0) =      -36.19480769


--------------------------------------------------------------------------------------------------------




--------------------------------------- Iteration      1(   4)  ---------------------------------------


    TRIAL :  cpu time      7.7455: real time      7.7501
    CORREC:  cpu time      0.0001: real time      0.0001
    --------------------------------------------
      LOOP:  cpu time      7.7589: real time      7.7804

 eigenvalue-minimisations  :   104
 total energy-change (2. order) :-0.1153428E+03  (-0.1146899E+03)
 number of electron      56.0000000 magnetization 
 augmentation part       56.0000000 magnetization 

 Free energy of the ion-electron system (eV)
  ---------------------------------------------------
  alpha Z        PSCENC =         0.61187337
  Ewald energy   TEWEN  =      6596.92229518
  -Hartree energ DENC   =     -8035.09987111
  -exchange      EXHF   =         0.00000000
  -V(xc)+E(xc)   XCENC  =       182.61103213
  PAW double counting   =      1484.96273403    -1470.99362554
  entropy T*S    EENTRO =        -0.00000000
  eigenvalues    EBANDS =     -1001.48484603
  atomic energy  EATOM  =      2090.93278114
  ---------------------------------------------------
  free energy    TOTEN  =      -151.53762683 eV

  energy without entropy =     -151.53762683  energy(sigma->0) =     -151.53762683


--------------------------------------------------------------------------------------------------------




--------------------------------------- Iteration      1(   5)  ---------------------------------------


    TRIAL :  cpu time      7.3977: real time      7.4016
    CORREC:  cpu time      0.0001: real time      0.0001
    CHARGE:  cpu time      1.2607: real time      1.2630
    --------------------------------------------
      LOOP:  cpu time      8.6721: real time      8.6947

 eigenvalue-minimisations  :    96
 total energy-change (2. order) :-0.1176345E+02  (-0.1173897E+02)
 number of electron      56.0000000 magnetization 
 augmentation part       -0.1144616 magnetization 

 Free energy of the ion-electron system (eV)
  ---------------------------------------------------
  alpha Z        PSCENC =         0.61187337
  Ewald energy   TEWEN  =      6596.92229518
  -Hartree energ DENC   =     -8035.09987111
  -exchange      EXHF   =         0.00000000
  -V(xc)+E(xc)   XCENC  =       182.61103213
  PAW double counting   =      1484.96273403    -1470.99362554
  entropy T*S    EENTRO =        -0.00000000
  eigenvalues    EBANDS =     -1013.24830052
  atomic energy  EATOM  =      2090.93278114
  ---------------------------------------------------
  free energy    TOTEN  =      -163.30108132 eV

  energy without entropy =     -163.30108132  energy(sigma->0) =     -163.30108132


--------------------------------------------------------------------------------------------------------




--------------------------------------- Iteration      1(   6)  ---------------------------------------


    POTLOK:  cpu time     25.0278: real time     25.0346
    SETDIJ:  cpu time      0.2641: real time      0.2641
    TRIAL :  cpu time      6.4546: real time      6.4589
    CORREC:  cpu time     28.1763: real time     28.1857
    CHARGE:  cpu time      1.2327: real time      1.2333
    --------------------------------------------
      LOOP:  cpu time     61.1812: real time     61.2168

 eigenvalue-minimisations  :     0
 total energy-change (2. order) : 0.3077810E+02  (-0.5087784E+01)
 number of electron      56.0000000 magnetization 
 augmentation part       -0.1153584 magnetization 

 Free energy of the ion-electron system (eV)
  ---------------------------------------------------
  alpha Z        PSCENC =         0.61187337
  Ewald energy   TEWEN  =      6596.92229518
  -Hartree energ DENC   =     -8510.88824147
  -exchange      EXHF   =         0.00000000
  -V(xc)+E(xc)   XCENC  =       205.57823138
  PAW double counting   =     17815.76874226   -17803.48542164
  entropy T*S    EENTRO =        -0.00000000
  eigenvalues    EBANDS =      -527.96323856
  atomic energy  EATOM  =      2090.93278114
  ---------------------------------------------------
  free energy    TOTEN  =      -132.52297835 eV

  energy without entropy =     -132.52297835  energy(sigma->0) =     -132.52297835


--------------------------------------------------------------------------------------------------------




--------------------------------------- Iteration      1(   7)  ---------------------------------------


    POTLOK:  cpu time     24.9933: real time     25.0001
    SETDIJ:  cpu time      0.3198: real time      0.3198
    TRIAL :  cpu time      6.4604: real time      6.4635
    CORREC:  cpu time     28.2073: real time     28.2157
    CHARGE:  cpu time      1.2309: real time      1.2315
    --------------------------------------------
      LOOP:  cpu time     61.2468: real time     61.2657

 eigenvalue-minimisations  :     0
 total energy-change (2. order) :-0.5116208E+01  (-0.8706229E+00)
 number of electron      56.0000000 magnetization 
 augmentation part       -0.1271413 magnetization 

 Free energy of the ion-electron system (eV)
  ---------------------------------------------------
  alpha Z        PSCENC =         0.61187337
  Ewald energy   TEWEN  =      6596.92229518
  -Hartree energ DENC   =     -8312.12489478
  -exchange      EXHF   =         0.00000000
  -V(xc)+E(xc)   XCENC  =       198.50248892
  PAW double counting   =     21750.50970761   -21737.22081572
  entropy T*S    EENTRO =        -0.00000000
  eigenvalues    EBANDS =      -725.77262254
  atomic energy  EATOM  =      2090.93278114
  ---------------------------------------------------
  free energy    TOTEN  =      -137.63918683 eV

  energy without entropy =     -137.63918683  energy(sigma->0) =     -137.63918683


--------------------------------------------------------------------------------------------------------




--------------------------------------- Iteration      1(   8)  ---------------------------------------


    POTLOK:  cpu time     25.3461: real time     25.3530
    SETDIJ:  cpu time      0.0007: real time      0.0007
    TRIAL :  cpu time      6.4599: real time      6.4631
    CORREC:  cpu time     28.2940: real time     28.3023
    CHARGE:  cpu time      1.2307: real time      1.2312
    --------------------------------------------
      LOOP:  cpu time     61.3447: real time     61.3824

 eigenvalue-minimisations  :     0
 total energy-change (2. order) :-0.8760874E+00  (-0.3008692E+00)
 number of electron      56.0000000 magnetization 
 augmentation part       -0.1200091 magnetization 

 Free energy of the ion-electron system (eV)
  ---------------------------------------------------
  alpha Z        PSCENC =         0.61187337
  Ewald energy   TEWEN  =      6596.92229518
  -Hartree energ DENC   =     -8316.64630419
  -exchange      EXHF   =         0.00000000
  -V(xc)+E(xc)   XCENC  =       198.16802743
  PAW double counting   =     24493.72700872   -24480.24473879
  entropy T*S    EENTRO =        -0.00000000
  eigenvalues    EBANDS =      -721.98621706
  atomic energy  EATOM  =      2090.93278114
  ---------------------------------------------------
  free energy    TOTEN  =      -138.51527420 eV

  energy without entropy =     -138.51527420  energy(sigma->0) =     -138.51527420


--------------------------------------------------------------------------------------------------------




--------------------------------------- Iteration      1(   9)  ---------------------------------------


    POTLOK:  cpu time     25.0163: real time     25.0237
    SETDIJ:  cpu time      0.2585: real time      0.2585
    TRIAL :  cpu time      6.4618: real time      6.4650
    CORREC:  cpu time     28.2287: real time     28.2390
    CHARGE:  cpu time      1.2314: real time      1.2321
    --------------------------------------------
      LOOP:  cpu time     61.2173: real time     61.2533

 eigenvalue-minimisations  :     0
 total energy-change (2. order) :-0.2998857E+00  (-0.1362910E+00)
 number of electron      56.0000000 magnetization 
 augmentation part       -0.1163669 magnetization 

 Free energy of the ion-electron system (eV)
  ---------------------------------------------------
  alpha Z        PSCENC =         0.61187337
  Ewald energy   TEWEN  =      6596.92229518
  -Hartree energ DENC   =     -8309.49598379
  -exchange      EXHF   =         0.00000000
  -V(xc)+E(xc)   XCENC  =       197.90577825
  PAW double counting   =     25770.45439692   -25756.89394712
  entropy T*S    EENTRO =        -0.00000000
  eigenvalues    EBANDS =      -729.25235384
  atomic energy  EATOM  =      2090.93278114
  ---------------------------------------------------
  free energy    TOTEN  =      -138.81515991 eV

  energy without entropy =     -138.81515991  energy(sigma->0) =     -138.81515991


--------------------------------------------------------------------------------------------------------




--------------------------------------- Iteration      1(  10)  ---------------------------------------


    POTLOK:  cpu time     25.0584: real time     25.0662
    SETDIJ:  cpu time      0.2381: real time      0.2381
    TRIAL :  cpu time      6.4613: real time      6.4644
    CORREC:  cpu time     28.2102: real time     28.2194
    CHARGE:  cpu time      1.2332: real time      1.2338
    --------------------------------------------
      LOOP:  cpu time     61.2329: real time     61.2537

 eigenvalue-minimisations  :     0
 total energy-change (2. order) :-0.1358233E+00  (-0.4631148E-01)
 number of electron      56.0000000 magnetization 
 augmentation part       -0.1143074 magnetization 

 Free energy of the ion-electron system (eV)
  ---------------------------------------------------
  alpha Z        PSCENC =         0.61187337
  Ewald energy   TEWEN  =      6596.92229518
  -Hartree energ DENC   =     -8301.16327817
  -exchange      EXHF   =         0.00000000
  -V(xc)+E(xc)   XCENC  =       197.84305254
  PAW double counting   =     25778.49003338   -25764.93557110
  entropy T*S    EENTRO =        -0.00000000
  eigenvalues    EBANDS =      -737.65216949
  atomic energy  EATOM  =      2090.93278114
  ---------------------------------------------------
  free energy    TOTEN  =      -138.95098316 eV

  energy without entropy =     -138.95098316  energy(sigma->0) =     -138.95098316


--------------------------------------------------------------------------------------------------------




--------------------------------------- Iteration      1(  11)  ---------------------------------------


    POTLOK:  cpu time     24.9649: real time     24.9726
    SETDIJ:  cpu time      0.3087: real time      0.3087
    TRIAL :  cpu time      6.4602: real time      6.4634
    CORREC:  cpu time     28.2463: real time     28.2553
    CHARGE:  cpu time      1.2329: real time      1.2334
    --------------------------------------------
      LOOP:  cpu time     61.2261: real time     61.2653

 eigenvalue-minimisations  :     0
 total energy-change (2. order) :-0.4617433E-01  (-0.1453305E-01)
 number of electron      56.0000000 magnetization 
 augmentation part       -0.1133229 magnetization 

 Free energy of the ion-electron system (eV)
  ---------------------------------------------------
  alpha Z        PSCENC =         0.61187337
  Ewald energy   TEWEN  =      6596.92229518
  -Hartree energ DENC   =     -8300.33993058
  -exchange      EXHF   =         0.00000000
  -V(xc)+E(xc)   XCENC  =       197.87384263
  PAW double counting   =     25336.49928322   -25322.97450376
  entropy T*S    EENTRO =        -0.00000000
  eigenvalues    EBANDS =      -738.52279867
  atomic energy  EATOM  =      2090.93278114
  ---------------------------------------------------
  free energy    TOTEN  =      -138.99715748 eV

  energy without entropy =     -138.99715748  energy(sigma->0) =     -138.99715748


--------------------------------------------------------------------------------------------------------




--------------------------------------- Iteration      1(  12)  ---------------------------------------


    POTLOK:  cpu time     25.0747: real time     25.0815
    SETDIJ:  cpu time      0.2097: real time      0.2099
    TRIAL :  cpu time      6.4609: real time      6.4640
    CORREC:  cpu time     28.5604: real time     28.5702
    CHARGE:  cpu time      1.2318: real time      1.2325
    --------------------------------------------
      LOOP:  cpu time     61.5552: real time     61.5910

 eigenvalue-minimisations  :     0
 total energy-change (2. order) :-0.1452251E-01  (-0.4669567E-02)
 number of electron      56.0000000 magnetization 
 augmentation part       -0.1134749 magnetization 

 Free energy of the ion-electron system (eV)
  ---------------------------------------------------
  alpha Z        PSCENC =         0.61187337
  Ewald energy   TEWEN  =      6596.92229518
  -Hartree energ DENC   =     -8299.14451210
  -exchange      EXHF   =         0.00000000
  -V(xc)+E(xc)   XCENC  =       197.79757258
  PAW double counting   =     25046.35089029   -25032.83527303
  entropy T*S    EENTRO =        -0.00000000
  eigenvalues    EBANDS =      -739.64730742
  atomic energy  EATOM  =      2090.93278114
  ---------------------------------------------------
  free energy    TOTEN  =      -139.01167999 eV

  energy without entropy =     -139.01167999  energy(sigma->0) =     -139.01167999


--------------------------------------------------------------------------------------------------------




--------------------------------------- Iteration      1(  13)  ---------------------------------------


    POTLOK:  cpu time     25.0324: real time     25.0395
    SETDIJ:  cpu time      0.2751: real time      0.2752
    TRIAL :  cpu time      6.4610: real time      6.4644
    CORREC:  cpu time     28.5043: real time     28.5137
    CHARGE:  cpu time      1.2317: real time      1.2321
    --------------------------------------------
      LOOP:  cpu time     61.5184: real time     61.5570

 eigenvalue-minimisations  :     0
 total energy-change (2. order) :-0.4679540E-02  (-0.1880585E-02)
 number of electron      56.0000000 magnetization 
 augmentation part       -0.1137657 magnetization 

 Free energy of the ion-electron system (eV)
  ---------------------------------------------------
  alpha Z        PSCENC =         0.61187337
  Ewald energy   TEWEN  =      6596.92229518
  -Hartree energ DENC   =     -8298.88922686
  -exchange      EXHF   =         0.00000000
  -V(xc)+E(xc)   XCENC  =       197.75779469
  PAW double counting   =     24916.68804766   -24903.17580611
  entropy T*S    EENTRO =        -0.00000000
  eigenvalues    EBANDS =      -739.86411859
  atomic energy  EATOM  =      2090.93278114
  ---------------------------------------------------
  free energy    TOTEN  =      -139.01635953 eV

  energy without entropy =     -139.01635953  energy(sigma->0) =     -139.01635953


--------------------------------------------------------------------------------------------------------




--------------------------------------- Iteration      1(  14)  ---------------------------------------


    POTLOK:  cpu time     24.9860: real time     24.9931
    SETDIJ:  cpu time      0.3024: real time      0.3026
    TRIAL :  cpu time      6.4632: real time      6.4661
    CORREC:  cpu time     28.2030: real time     28.2129
    CHARGE:  cpu time      1.2309: real time      1.2319
    --------------------------------------------
      LOOP:  cpu time     61.2025: real time     61.2407

 eigenvalue-minimisations  :     0
 total energy-change (2. order) :-0.1890807E-02  (-0.8660654E-03)
 number of electron      56.0000000 magnetization 
 augmentation part       -0.1138588 magnetization 

 Free energy of the ion-electron system (eV)
  ---------------------------------------------------
  alpha Z        PSCENC =         0.61187337
  Ewald energy   TEWEN  =      6596.92229518
  -Hartree energ DENC   =     -8299.59965276
  -exchange      EXHF   =         0.00000000
  -V(xc)+E(xc)   XCENC  =       197.76966298
  PAW double counting   =     24866.99073031   -24853.48174153
  entropy T*S    EENTRO =        -0.00000000
  eigenvalues    EBANDS =      -739.16419902
  atomic energy  EATOM  =      2090.93278114
  ---------------------------------------------------
  free energy    TOTEN  =      -139.01825034 eV

  energy without entropy =     -139.01825034  energy(sigma->0) =     -139.01825034


--------------------------------------------------------------------------------------------------------




--------------------------------------- Iteration      1(  15)  ---------------------------------------


    POTLOK:  cpu time     25.0209: real time     25.0280
    SETDIJ:  cpu time      0.2775: real time      0.2775
    TRIAL :  cpu time      6.4775: real time      6.4802
    CORREC:  cpu time     28.2131: real time     28.2221
    CHARGE:  cpu time      1.2293: real time      1.2299
    --------------------------------------------
      LOOP:  cpu time     61.2507: real time     61.2702

 eigenvalue-minimisations  :     0
 total energy-change (2. order) :-0.8766520E-03  (-0.3692615E-03)
 number of electron      56.0000000 magnetization 
 augmentation part       -0.1137248 magnetization 

 Free energy of the ion-electron system (eV)
  ---------------------------------------------------
  alpha Z        PSCENC =         0.61187337
  Ewald energy   TEWEN  =      6596.92229518
  -Hartree energ DENC   =     -8299.53391616
  -exchange      EXHF   =         0.00000000
  -V(xc)+E(xc)   XCENC  =       197.76932119
  PAW double counting   =     24860.24281504   -24846.73310954
  entropy T*S    EENTRO =        -0.00000000
  eigenvalues    EBANDS =      -739.23118720
  atomic energy  EATOM  =      2090.93278114
  ---------------------------------------------------
  free energy    TOTEN  =      -139.01912699 eV

  energy without entropy =     -139.01912699  energy(sigma->0) =     -139.01912699


--------------------------------------------------------------------------------------------------------




--------------------------------------- Iteration      1(  16)  ---------------------------------------


    POTLOK:  cpu time     25.0363: real time     25.0436
    SETDIJ:  cpu time      0.2497: real time      0.2497
    TRIAL :  cpu time      6.4674: real time      6.4706
    CORREC:  cpu time     28.2772: real time     28.2860
    CHARGE:  cpu time      1.2341: real time      1.2347
    --------------------------------------------
      LOOP:  cpu time     61.2792: real time     61.3180

 eigenvalue-minimisations  :     0
 total energy-change (2. order) :-0.3754948E-03  (-0.1378344E-03)
 number of electron      56.0000000 magnetization 
 augmentation part       -0.1136059 magnetization 

 Free energy of the ion-electron system (eV)
  ---------------------------------------------------
  alpha Z        PSCENC =         0.61187337
  Ewald energy   TEWEN  =      6596.92229518
  -Hartree energ DENC   =     -8299.79729337
  -exchange      EXHF   =         0.00000000
  -V(xc)+E(xc)   XCENC  =       197.77884585
  PAW double counting   =     24868.27434028   -24854.76413890
  entropy T*S    EENTRO =        -0.00000000
  eigenvalues    EBANDS =      -738.97820602
  atomic energy  EATOM  =      2090.93278114
  ---------------------------------------------------
  free energy    TOTEN  =      -139.01950249 eV

  energy without entropy =     -139.01950249  energy(sigma->0) =     -139.01950249


--------------------------------------------------------------------------------------------------------




--------------------------------------- Iteration      1(  17)  ---------------------------------------


    POTLOK:  cpu time     25.0237: real time     25.0312
    SETDIJ:  cpu time      0.2876: real time      0.2878
    TRIAL :  cpu time      6.4919: real time      6.4948
    CORREC:  cpu time     28.2507: real time     28.2585
    CHARGE:  cpu time      1.2351: real time      1.2362
    --------------------------------------------
      LOOP:  cpu time     61.3047: real time     61.3415

 eigenvalue-minimisations  :     0
 total energy-change (2. order) :-0.1398151E-03  (-0.4567170E-04)
 number of electron      56.0000000 magnetization 
 augmentation part       -0.1135509 magnetization 

 Free energy of the ion-electron system (eV)
  ---------------------------------------------------
  alpha Z        PSCENC =         0.61187337
  Ewald energy   TEWEN  =      6596.92229518
  -Hartree energ DENC   =     -8299.88005079
  -exchange      EXHF   =         0.00000000
  -V(xc)+E(xc)   XCENC  =       197.78165251
  PAW double counting   =     24880.21483313   -24866.70381178
  entropy T*S    EENTRO =        -0.00000000
  eigenvalues    EBANDS =      -738.89921507
  atomic energy  EATOM  =      2090.93278114
  ---------------------------------------------------
  free energy    TOTEN  =      -139.01964230 eV

  energy without entropy =     -139.01964230  energy(sigma->0) =     -139.01964230


--------------------------------------------------------------------------------------------------------




--------------------------------------- Iteration      1(  18)  ---------------------------------------


    POTLOK:  cpu time     25.4320: real time     25.4397
    SETDIJ:  cpu time      0.0033: real time      0.0033
    TRIAL :  cpu time      6.4624: real time      6.4654
    CORREC:  cpu time     28.3642: real time     28.3733
    CHARGE:  cpu time      1.2291: real time      1.2297
    --------------------------------------------
      LOOP:  cpu time     61.5224: real time     61.5429

 eigenvalue-minimisations  :     0
 total energy-change (2. order) :-0.4585999E-04  (-0.1424353E-04)
 number of electron      56.0000000 magnetization 
 augmentation part       -0.1135211 magnetization 

 Free energy of the ion-electron system (eV)
  ---------------------------------------------------
  alpha Z        PSCENC =         0.61187337
  Ewald energy   TEWEN  =      6596.92229518
  -Hartree energ DENC   =     -8299.82736854
  -exchange      EXHF   =         0.00000000
  -V(xc)+E(xc)   XCENC  =       197.78029095
  PAW double counting   =     24890.22054788   -24876.70884284
  entropy T*S    EENTRO =        -0.00000000
  eigenvalues    EBANDS =      -738.95126530
  atomic energy  EATOM  =      2090.93278114
  ---------------------------------------------------
  free energy    TOTEN  =      -139.01968816 eV

  energy without entropy =     -139.01968816  energy(sigma->0) =     -139.01968816


--------------------------------------------------------------------------------------------------------




--------------------------------------- Iteration      1(  19)  ---------------------------------------


    POTLOK:  cpu time     25.0209: real time     25.0282
    SETDIJ:  cpu time      0.3072: real time      0.3074
    TRIAL :  cpu time      6.4706: real time      6.4737
    CORREC:  cpu time     28.2201: real time     28.2292
    CHARGE:  cpu time      1.2348: real time      1.2352
    --------------------------------------------
      LOOP:  cpu time     61.2701: real time     61.3057

 eigenvalue-minimisations  :     0
 total energy-change (2. order) :-0.1396875E-04  (-0.5104966E-05)
 number of electron      56.0000000 magnetization 
 augmentation part       -0.1135222 magnetization 

 Free energy of the ion-electron system (eV)
  ---------------------------------------------------
  alpha Z        PSCENC =         0.61187337
  Ewald energy   TEWEN  =      6596.92229518
  -Hartree energ DENC   =     -8299.87111381
  -exchange      EXHF   =         0.00000000
  -V(xc)+E(xc)   XCENC  =       197.78201517
  PAW double counting   =     24895.64334555   -24882.13167068
  entropy T*S    EENTRO =        -0.00000000
  eigenvalues    EBANDS =      -738.90922803
  atomic energy  EATOM  =      2090.93278114
  ---------------------------------------------------
  free energy    TOTEN  =      -139.01970213 eV

  energy without entropy =     -139.01970213  energy(sigma->0) =     -139.01970213


--------------------------------------------------------------------------------------------------------




--------------------------------------- Iteration      1(  20)  ---------------------------------------


    POTLOK:  cpu time     25.0185: real time     25.0260
    SETDIJ:  cpu time      0.4065: real time      0.4067
    TRIAL :  cpu time      6.4572: real time      6.4600
    CORREC:  cpu time     28.2017: real time     28.2111
    CHARGE:  cpu time      1.2305: real time      1.2311
    --------------------------------------------
      LOOP:  cpu time     61.3303: real time     61.3690

 eigenvalue-minimisations  :     0
 total energy-change (2. order) :-0.4506957E-05  (-0.1607642E-05)
 number of electron      56.0000000 magnetization 
 augmentation part       -0.1135255 magnetization 

 Free energy of the ion-electron system (eV)
  ---------------------------------------------------
  alpha Z        PSCENC =         0.61187337
  Ewald energy   TEWEN  =      6596.92229518
  -Hartree energ DENC   =     -8299.81236173
  -exchange      EXHF   =         0.00000000
  -V(xc)+E(xc)   XCENC  =       197.78069087
  PAW double counting   =     24898.17259885   -24884.66084577
  entropy T*S    EENTRO =        -0.00000000
  eigenvalues    EBANDS =      -738.96673854
  atomic energy  EATOM  =      2090.93278114
  ---------------------------------------------------
  free energy    TOTEN  =      -139.01970664 eV

  energy without entropy =     -139.01970664  energy(sigma->0) =     -139.01970664


--------------------------------------------------------------------------------------------------------




--------------------------------------- Iteration      1(  21)  ---------------------------------------


    POTLOK:  cpu time     25.0131: real time     25.0196
    SETDIJ:  cpu time      0.3290: real time      0.3290
    TRIAL :  cpu time      6.4646: real time      6.4678
    CORREC:  cpu time     28.2246: real time     28.2334
    CHARGE:  cpu time      1.2304: real time      1.2310
    --------------------------------------------
      LOOP:  cpu time     61.2954: real time     61.3147

 eigenvalue-minimisations  :     0
 total energy-change (2. order) :-0.1525612E-05  (-0.6247964E-06)
 number of electron      56.0000000 magnetization 
 augmentation part       -0.1135368 magnetization 

 Free energy of the ion-electron system (eV)
  ---------------------------------------------------
  alpha Z        PSCENC =         0.61187337
  Ewald energy   TEWEN  =      6596.92229518
  -Hartree energ DENC   =     -8299.84500532
  -exchange      EXHF   =         0.00000000
  -V(xc)+E(xc)   XCENC  =       197.78166791
  PAW double counting   =     24898.50409242   -24884.99248835
  entropy T*S    EENTRO =        -0.00000000
  eigenvalues    EBANDS =      -738.93492449
  atomic energy  EATOM  =      2090.93278114
  ---------------------------------------------------
  free energy    TOTEN  =      -139.01970816 eV

  energy without entropy =     -139.01970816  energy(sigma->0) =     -139.01970816


--------------------------------------------------------------------------------------------------------




--------------------------------------- Iteration      1(  22)  ---------------------------------------


    POTLOK:  cpu time     24.9846: real time     24.9915
    SETDIJ:  cpu time      0.3409: real time      0.3410
    TRIAL :  cpu time      6.4575: real time      6.4604
    CORREC:  cpu time     28.4133: real time     28.4223
    CHARGE:  cpu time      1.2309: real time      1.2318
    --------------------------------------------
      LOOP:  cpu time     61.4533: real time     61.4922

 eigenvalue-minimisations  :     0
 total energy-change (2. order) :-0.6228329E-06  (-0.1835745E-06)
 number of electron      56.0000000 magnetization 
 augmentation part       -0.1135424 magnetization 

 Free energy of the ion-electron system (eV)
  ---------------------------------------------------
  alpha Z        PSCENC =         0.61187337
  Ewald energy   TEWEN  =      6596.92229518
  -Hartree energ DENC   =     -8299.82777578
  -exchange      EXHF   =         0.00000000
  -V(xc)+E(xc)   XCENC  =       197.78103167
  PAW double counting   =     24898.24137864   -24884.72974570
  entropy T*S    EENTRO =        -0.00000000
  eigenvalues    EBANDS =      -738.95154729
  atomic energy  EATOM  =      2090.93278114
  ---------------------------------------------------
  free energy    TOTEN  =      -139.01970878 eV

  energy without entropy =     -139.01970878  energy(sigma->0) =     -139.01970878


--------------------------------------------------------------------------------------------------------




--------------------------------------- Iteration      1(  23)  ---------------------------------------


    POTLOK:  cpu time     25.0026: real time     25.0099
    SETDIJ:  cpu time      0.2830: real time      0.2831
    TRIAL :  cpu time      6.4615: real time      6.4644
    CORREC:  cpu time     28.4452: real time     28.4541
    CHARGE:  cpu time      1.2318: real time      1.2324
    --------------------------------------------
      LOOP:  cpu time     61.4385: real time     61.4756

 eigenvalue-minimisations  :     0
 total energy-change (2. order) :-0.1667104E-06  (-0.7119693E-07)
 number of electron      56.0000000 magnetization 
 augmentation part       -0.1135449 magnetization 

 Free energy of the ion-electron system (eV)
  ---------------------------------------------------
  alpha Z        PSCENC =         0.61187337
  Ewald energy   TEWEN  =      6596.92229518
  -Hartree energ DENC   =     -8299.82693907
  -exchange      EXHF   =         0.00000000
  -V(xc)+E(xc)   XCENC  =       197.78092332
  PAW double counting   =     24897.99535618   -24884.48372191
  entropy T*S    EENTRO =        -0.00000000
  eigenvalues    EBANDS =      -738.95227716
  atomic energy  EATOM  =      2090.93278114
  ---------------------------------------------------
  free energy    TOTEN  =      -139.01970895 eV

  energy without entropy =     -139.01970895  energy(sigma->0) =     -139.01970895


--------------------------------------------------------------------------------------------------------




--------------------------------------- Iteration      1(  24)  ---------------------------------------


    POTLOK:  cpu time     24.9781: real time     24.9849
    SETDIJ:  cpu time      0.3279: real time      0.3279
    TRIAL :  cpu time      6.4643: real time      6.4673
    CORREC:  cpu time     28.2504: real time     28.2596
    EDDIAG:  cpu time      1.6770: real time      1.6786
    CHARGE:  cpu time      1.2308: real time      1.2313
    --------------------------------------------
      LOOP:  cpu time     62.9431: real time     62.9820

 eigenvalue-minimisations  :     0
 total energy-change (2. order) :-0.4282629E-07  (-0.3458930E-07)
 number of electron      56.0000000 magnetization 
 augmentation part       -0.1135461 magnetization 

 Free energy of the ion-electron system (eV)
  ---------------------------------------------------
  alpha Z        PSCENC =         0.61187337
  Ewald energy   TEWEN  =      6596.92229518
  -Hartree energ DENC   =     -8299.83004651
  -exchange      EXHF   =         0.00000000
  -V(xc)+E(xc)   XCENC  =       197.78097543
  PAW double counting   =     24897.84167477   -24884.33004860
  entropy T*S    EENTRO =        -0.00000000
  eigenvalues    EBANDS =      -738.94921377
  atomic energy  EATOM  =      2090.93278114
  ---------------------------------------------------
  free energy    TOTEN  =      -139.01970899 eV

  energy without entropy =     -139.01970899  energy(sigma->0) =     -139.01970899


--------------------------------------------------------------------------------------------------------


  average scaling for gradient   0.9735


 average (electrostatic) potential at core
  the test charge radii are     0.5770  0.4325  0.5902
  (the norm of the test charge is              1.0000)
       1 -89.4999       2 -89.4964       3 -89.5000       4 -89.4958       5 -89.4992
       6 -89.4961       7 -46.9849       8 -46.9823       9 -46.9830      10 -46.9830
      11 -46.9850      12 -46.9825      13 -46.9832      14 -46.9826      15 -46.9851
      16 -46.9822      17 -46.9837      18 -46.9827      19-106.0902      20-106.0900
      21-106.0947      22-106.0902



 E-fermi :  -5.2160     XC(G=0):  -0.0947     alpha+bet : -0.0850

 Fermi energy:        -5.2160120810

 k-point     1 :       0.0000    0.0000    0.0000
  band No.  band energies     occupation 
      1     -26.4312      2.00000
      2     -23.2991      2.00000
      3     -23.2988      2.00000
      4     -23.2979      2.00000
      5     -18.1344      2.00000
      6     -18.1344      2.00000
      7     -16.7046      2.00000
      8     -16.7045      2.00000
      9     -16.7040      2.00000
     10     -14.4114      2.00000
     11     -12.4025      2.00000
     12     -12.4023      2.00000
     13     -12.4003      2.00000
     14     -11.9368      2.00000
     15     -11.9362      2.00000
     16     -11.9358      2.00000
     17      -9.6218      2.00000
     18      -9.6209      2.00000
     19      -9.6202      2.00000
     20      -9.4184      2.00000
     21      -9.4182      2.00000
     22      -8.9976      2.00000
     23      -8.9499      2.00000
     24      -8.9496      2.00000
     25      -8.9486      2.00000
     26      -5.2652      2.00000
     27      -5.2651      2.00000
     28      -5.2647      2.00000
     29      -0.0744      0.00000
     30       0.1607      0.00000
     31       0.2949      0.00000
     32       0.3007      0.00000
     33       0.3043      0.00000
     34       0.3294      0.00000
     35       0.4123      0.00000
     36       0.5046      0.00000
     37       0.5093      0.00000
     38       0.5528      0.00000
     39       0.5621      0.00000
     40       0.5674      0.00000


--------------------------------------------------------------------------------------------------------


 soft charge-density along one line, spin component           1
         0         1         2         3         4         5         6         7         8         9
 total charge-density along one line

 pseudopotential strength for first ion, spin component:           1
 12.685  21.345   0.003   0.006  -0.005   0.006   0.011  -0.008
 21.345  35.916   0.006   0.010  -0.008   0.010   0.018  -0.014
  0.003   0.006  -3.268   0.001   0.000  -5.856   0.002   0.001
  0.006   0.010   0.001  -3.266   0.000   0.002  -5.853   0.001
 -0.005  -0.008   0.000   0.000  -3.265   0.001   0.001  -5.851
  0.006   0.010  -5.856   0.002   0.001 -10.471   0.004   0.001
  0.011   0.018   0.002  -5.853   0.001   0.004 -10.467   0.001
 -0.008  -0.014   0.001   0.001  -5.851   0.001   0.001 -10.463
 total augmentation occupancy for first ion, spin component:           1
  8.868  -3.271   0.105   0.181  -0.152  -0.074  -0.127   0.105
 -3.271   1.246  -0.095  -0.163   0.136   0.053   0.091  -0.075
  0.105  -0.095   6.336  -0.054  -0.015  -2.220   0.083   0.031
  0.181  -0.163  -0.054   6.273  -0.025   0.083  -2.124   0.054
 -0.152   0.136  -0.015  -0.025   6.215   0.031   0.054  -2.029
 -0.074   0.053  -2.220   0.083   0.031   0.794  -0.053  -0.020
 -0.127   0.091   0.083  -2.124   0.054  -0.053   0.732  -0.035
  0.105  -0.075   0.031   0.054  -2.029  -0.020  -0.035   0.671


------------------------ aborting loop because EDIFF is reached ----------------------------------------


    FORLOC:  cpu time      0.0937: real time      0.0938
    FORNL :  cpu time      0.1016: real time      0.1018
    FORCOR:  cpu time     24.9100: real time     24.9166
    OFIELD:  cpu time      0.0055: real time      0.0055

 VOLUME and BASIS-vectors are now :
 -----------------------------------------------------------------------------
  energy-cutoff  :     1000.00
  volume of cell :    15625.00
      direct lattice vectors                 reciprocal lattice vectors
    25.000000000  0.000000000  0.000000000     0.040000000  0.000000000  0.000000000
     0.000000000 25.000000000  0.000000000     0.000000000  0.040000000  0.000000000
     0.000000000  0.000000000 25.000000000     0.000000000  0.000000000  0.040000000

  length of vectors
    25.000000000 25.000000000 25.000000000     0.040000000  0.040000000  0.040000000


 FORCES acting on ions:
    Electron-Ion                     Ewald-Force                    Non-Local-Force
 -----------------------------------------------------------------------------------------------
   -.183E+03 0.130E+03 0.224E+03   0.187E+03 -.132E+03 -.228E+03   -.336E+01 0.236E+01 0.409E+01
   0.183E+03 0.259E+03 -.530E-03   -.187E+03 -.264E+03 0.411E-03   0.335E+01 0.472E+01 0.171E-03
   -.183E+03 0.130E+03 -.224E+03   0.187E+03 -.132E+03 0.228E+03   -.336E+01 0.237E+01 -.409E+01
   0.183E+03 -.130E+03 0.224E+03   -.187E+03 0.132E+03 -.228E+03   0.335E+01 -.236E+01 0.409E+01
   -.183E+03 -.259E+03 0.890E-02   0.186E+03 0.264E+03 -.100E-01   -.336E+01 -.472E+01 0.517E-04
   0.183E+03 -.130E+03 -.224E+03   -.187E+03 0.132E+03 0.228E+03   0.335E+01 -.236E+01 -.409E+01
   -.101E+03 0.200E+02 0.347E+02   0.107E+03 -.201E+02 -.348E+02   -.580E+01 0.889E-01 0.154E+00
   -.399E+01 0.544E+02 0.943E+02   0.229E+01 -.570E+02 -.988E+02   0.176E+01 0.276E+01 0.478E+01
   0.527E+02 0.744E+02 0.596E+02   -.545E+02 -.771E+02 -.640E+02   0.202E+01 0.285E+01 0.463E+01
   0.527E+02 0.744E+02 -.596E+02   -.545E+02 -.771E+02 0.640E+02   0.202E+01 0.285E+01 -.463E+01
   -.101E+03 0.200E+02 -.347E+02   0.107E+03 -.201E+02 0.348E+02   -.580E+01 0.889E-01 -.154E+00
   -.399E+01 0.544E+02 -.943E+02   0.229E+01 -.570E+02 0.988E+02   0.176E+01 0.276E+01 -.478E+01
   0.527E+02 0.144E+02 0.942E+02   -.545E+02 -.168E+02 -.987E+02   0.202E+01 0.258E+01 0.478E+01
   0.527E+02 -.888E+02 0.347E+02   -.545E+02 0.939E+02 -.348E+02   0.202E+01 -.543E+01 0.153E+00
   -.101E+03 -.401E+02 0.955E-04   0.107E+03 0.402E+02 -.113E-03   -.580E+01 -.178E+00 0.247E-04
   -.399E+01 -.109E+03 0.684E-04   0.229E+01 0.114E+03 -.135E-03   0.176E+01 -.552E+01 0.933E-05
   0.527E+02 0.144E+02 -.942E+02   -.545E+02 -.168E+02 0.987E+02   0.202E+01 0.258E+01 -.478E+01
   0.527E+02 -.888E+02 -.347E+02   -.545E+02 0.939E+02 0.348E+02   0.202E+01 -.543E+01 -.153E+00
   -.128E+03 0.362E+03 -.202E-03   0.138E+03 -.392E+03 0.746E-04   -.104E+02 0.295E+02 0.961E-04
   -.128E+03 -.181E+03 0.314E+03   0.138E+03 0.196E+03 -.339E+03   -.104E+02 -.148E+02 0.255E+02
   0.384E+03 -.623E-01 -.980E-02   -.415E+03 0.659E-01 0.107E-01   0.313E+02 -.257E-02 0.654E-03
   -.128E+03 -.181E+03 -.314E+03   0.138E+03 0.196E+03 0.339E+03   -.104E+02 -.147E+02 -.255E+02
 -----------------------------------------------------------------------------------------------
   -.452E-01 -.177E-01 -.584E-02   -.284E-13 -.853E-13 0.000E+00   -.143E-01 0.105E-01 0.568E-02


 POSITION                                       TOTAL-FORCE (eV/Angst)
 -----------------------------------------------------------------------------------
     13.18860     11.55265     11.30635        -0.051866      0.014830      0.016133
     11.23960     10.86365     12.49995         0.035938      0.025346      0.000035
     13.18860     11.55265     13.69355        -0.051826      0.015017     -0.016817
     11.23970     12.93085     11.30625         0.032489     -0.008942      0.021153
     13.18860     13.62005     12.49995        -0.051617     -0.015078     -0.001051
     11.23970     12.93085     13.69375         0.032793     -0.008988     -0.024437
     14.29000     11.54825     11.29875        -0.330041      0.022907      0.039884
     12.82950     11.03195     10.40445         0.069828      0.163690      0.283448
     10.86810     10.33855     11.60575         0.135564      0.186609      0.241449
     10.86810     10.33855     13.39415         0.135547      0.186600     -0.241478
     14.29000     11.54825     13.70115        -0.330023      0.022897     -0.039887
     12.82950     11.03195     14.59545         0.069762      0.163927     -0.283428
     10.86810     12.41885     10.40445         0.136540      0.117575      0.283913
     10.86810     13.96775     11.29875         0.136467     -0.301066      0.039223
     14.29000     13.62885     12.49995        -0.329748     -0.045621      0.000014
     12.82950     14.66145     12.49995         0.069392     -0.325831     -0.000049
     10.86810     12.41885     14.59555         0.136895      0.117638     -0.284106
     10.86810     13.96775     13.70115         0.136423     -0.301107     -0.038736
     12.71540     10.82355     12.49995        -0.098606      0.228360     -0.000030
     12.71550     12.95085     11.27165        -0.090559     -0.132456      0.223730
     10.71000     12.24185     12.49995         0.297805      0.007205      0.001629
     12.71550     12.95085     13.72815        -0.091158     -0.133511     -0.220593
 -----------------------------------------------------------------------------------
    total drift:                               -0.059525     -0.007193     -0.000166


--------------------------------------------------------------------------------------------------------



  FREE ENERGIE OF THE ION-ELECTRON SYSTEM (eV)
  ---------------------------------------------------
  free  energy   TOTEN  =      -139.01970899 eV

  energy  without entropy=     -139.01970899  energy(sigma->0) =     -139.01970899



--------------------------------------------------------------------------------------------------------


    POTLOK:  cpu time     25.3520: real time     25.3603


--------------------------------------------------------------------------------------------------------


 stress matrix after NEB project (eV)
      0.00000      0.00000      0.00000
      0.00000      0.00000      0.00000
      0.00000      0.00000      0.00000
  FORCES: max atom, RMS     0.336593    0.274246
  FORCE total and by dimension    1.286328    0.330041
  Stress total and by dimension    0.000000    0.000000
     LOOP+:  cpu time   1284.6520: real time   1285.3923
    4ORBIT:  cpu time      0.0000: real time      0.0000

 total amount of memory used by VASP MPI-rank0   195383. kBytes
=======================================================================

   base      :      30000. kBytes
   nonl-proj :       9539. kBytes
   fftplans  :      41190. kBytes
   grid      :     110444. kBytes
   one-center:          1. kBytes
   wavefun   :       4209. kBytes

  
  
 General timing and accounting informations for this job:
 ========================================================
  
                  Total CPU time used (sec):     1316.464
                            User time (sec):     1268.882
                          System time (sec):       47.582
                         Elapsed time (sec):     1325.790
  
                   Maximum memory used (kb):      833148.
                   Average memory used (kb):          N/A
  
                          Minor page faults:       780415
                          Major page faults:          757
                 Voluntary context switches:         7752
