 vasp.6.4.1 05Apr23 (build Jun  6 2023 14:46:38) gamma-only                      
 executed on        HPECrayEX_GCC date 2024.08.22  11:55:50
 running  512 mpi-ranks, with    1 threads/rank, on    4 nodes
 distrk:  each k-point on  256 cores,    2 groups
 distr:  one band on NCORE=  32 cores,    8 groups


--------------------------------------------------------------------------------------------------------


 INCAR:
   ALGO = Conjugate
   KPAR = 2
   NCORE = 32
   PREC = Accurate
   EDIFF = 1E-7
   ENCUT = 1000
   ISMEAR = 0
   SIGMA = 0.01
   ISIF = 0
   SYMPREC = 1E-7
   LWAVE = .FALSE.
   LCHARG = .FALSE.

 POTCAR:    PAW_PBE C_h 06Feb2004                 
 POTCAR:    PAW_PBE H_h 06Feb2004                 
 POTCAR:    PAW_PBE N_h 06Feb2004                 
 POTCAR:    PAW_PBE C_h 06Feb2004                 
   VRHFIN =C: s2p2                                                                                  
   LEXCH  = PE                                                                                      
   EATOM  =   147.1560 eV,   10.8157 Ry                                                             
                                                                                                    
   TITEL  = PAW_PBE C_h 06Feb2004                                                                   
   LULTRA =        F    use ultrasoft PP ?                                                          
   IUNSCR =        1    unscreen: 0-lin 1-nonlin 2-no                                               
   RPACOR =    0.800    partial core radius                                                         
   POMASS =   12.011; ZVAL   =    4.000    mass and valenz                                          
   RCORE  =    1.100    outmost cutoff radius                                                       
   RWIGS  =    1.630; RWIGS  =    0.863    wigner-seitz radius (au A)                               
   ENMAX  =  700.000; ENMIN  =  500.000 eV                                                          
   ICORE  =        2    local potential                                                             
   LCOR   =        T    correct aug charges                                                         
   LPAW   =        T    paw PP                                                                      
   EAUG   =  946.768                                                                                
   DEXC   =    0.000                                                                                
   RMAX   =    1.128    core radius for proj-oper                                                   
   RAUG   =    1.300    factor for augmentation sphere                                              
   RDEP   =    1.162    radius for radial grids                                                     
   RDEPT  =    1.088    core radius for aug-charge                                                  
                                                                                                    
   Atomic configuration                                                                             
    4 entries                                                                                       
     n  l   j            E        occ.                                                              
     1  0  0.50      -273.3789   2.0000                                                             
     2  0  0.50       -13.7508   2.0000                                                             
     2  1  0.50        -5.2854   2.0000                                                             
     3  2  1.50        -5.4423   0.0000                                                             
   Description                                                                                      
     l       E           TYP  RCUT    TYP  RCUT                                                     
     0    -13.7508458     23  1.100                                                                 
     0     -8.2022199     23  1.100                                                                 
     1     -5.2854383     23  1.100                                                                 
     1      1.1560700     23  1.100                                                                 
     2     -5.4423304      7  1.100                                                                 
  local pseudopotential read in
  partial core-charges read in
  partial kinetic energy density read in
  atomic valenz-charges read in
  non local Contribution for L=           0  read in
    real space projection operators read in
  non local Contribution for L=           0  read in
    real space projection operators read in
  non local Contribution for L=           1  read in
    real space projection operators read in
  non local Contribution for L=           1  read in
    real space projection operators read in
    PAW grid and wavefunctions read in

   number of l-projection  operators is LMAX  =           4
   number of lm-projection operators is LMMAX =           8

 POTCAR:    PAW_PBE H_h 06Feb2004                 
   VRHFIN =H: ultrasoft test                                                                        
   LEXCH  = PE                                                                                      
   EATOM  =    12.4884 eV,    0.9179 Ry                                                             
                                                                                                    
   TITEL  = PAW_PBE H_h 06Feb2004                                                                   
   LULTRA =        F    use ultrasoft PP ?                                                          
   IUNSCR =        0    unscreen: 0-lin 1-nonlin 2-no                                               
   RPACOR =    0.000    partial core radius                                                         
   POMASS =    1.000; ZVAL   =    1.000    mass and valenz                                          
   RCORE  =    0.800    outmost cutoff radius                                                       
   RWIGS  =    0.700; RWIGS  =    0.370    wigner-seitz radius (au A)                               
   ENMAX  =  700.000; ENMIN  =  350.000 eV                                                          
   RCLOC  =    0.701    cutoff for local pot                                                        
   LCOR   =        T    correct aug charges                                                         
   LPAW   =        T    paw PP                                                                      
   EAUG   = 1000.000                                                                                
   RMAX   =    0.819    core radius for proj-oper                                                   
   RAUG   =    1.000    factor for augmentation sphere                                              
   RDEP   =    0.817    radius for radial grids                                                     
   RDEPT  =    0.817    core radius for aug-charge                                                  
                                                                                                    
   Atomic configuration                                                                             
    2 entries                                                                                       
     n  l   j            E        occ.                                                              
     1  0  0.50        -6.4927   1.0000                                                             
     2  1  0.50        -3.4015   0.0000                                                             
   Description                                                                                      
     l       E           TYP  RCUT    TYP  RCUT                                                     
     0     -6.4927493     23  0.800                                                                 
     0      6.8029130     23  0.800                                                                 
     1     -6.8029130     23  0.800                                                                 
  local pseudopotential read in
  atomic valenz-charges read in
  non local Contribution for L=           0  read in
    real space projection operators read in
  non local Contribution for L=           0  read in
    real space projection operators read in
  non local Contribution for L=           1  read in
    real space projection operators read in
    PAW grid and wavefunctions read in

   number of l-projection  operators is LMAX  =           3
   number of lm-projection operators is LMMAX =           5

 POTCAR:    PAW_PBE N_h 06Feb2004                 
   VRHFIN =N: s2p3                                                                                  
   LEXCH  = PE                                                                                      
   EATOM  =   264.5486 eV,   19.4438 Ry                                                             
                                                                                                    
   TITEL  = PAW_PBE N_h 06Feb2004                                                                   
   LULTRA =        F    use ultrasoft PP ?                                                          
   IUNSCR =        1    unscreen: 0-lin 1-nonlin 2-no                                               
   RPACOR =    0.800    partial core radius                                                         
   POMASS =   14.001; ZVAL   =    5.000    mass and valenz                                          
   RCORE  =    1.100    outmost cutoff radius                                                       
   RWIGS  =    1.480; RWIGS  =    0.783    wigner-seitz radius (au A)                               
   ENMAX  =  700.000; ENMIN  =  500.000 eV                                                          
   ICORE  =        2    local potential                                                             
   LCOR   =        T    correct aug charges                                                         
   LPAW   =        T    paw PP                                                                      
   EAUG   =  904.640                                                                                
   DEXC   =    0.000                                                                                
   RMAX   =    1.127    core radius for proj-oper                                                   
   RAUG   =    1.300    factor for augmentation sphere                                              
   RDEP   =    1.115    radius for radial grids                                                     
   RDEPT  =    1.106    core radius for aug-charge                                                  
                                                                                                    
   Atomic configuration                                                                             
    4 entries                                                                                       
     n  l   j            E        occ.                                                              
     1  0  0.50      -384.7179   2.0000                                                             
     2  0  0.50       -18.5828   2.0000                                                             
     2  1  0.50        -7.0898   3.0000                                                             
     3  2  1.50        -6.8029   0.0000                                                             
   Description                                                                                      
     l       E           TYP  RCUT    TYP  RCUT                                                     
     0    -18.5828117     23  1.100                                                                 
     0    -15.0750597     23  1.100                                                                 
     1     -7.0897851     23  1.100                                                                 
     1     -1.9663412     23  1.100                                                                 
     2     -6.8029130      7  1.100                                                                 
  local pseudopotential read in
  partial core-charges read in
  partial kinetic energy density read in
  kinetic energy density of atom read in
  atomic valenz-charges read in
  non local Contribution for L=           0  read in
    real space projection operators read in
  non local Contribution for L=           0  read in
    real space projection operators read in
  non local Contribution for L=           1  read in
    real space projection operators read in
  non local Contribution for L=           1  read in
    real space projection operators read in
    PAW grid and wavefunctions read in

   number of l-projection  operators is LMAX  =           4
   number of lm-projection operators is LMMAX =           8

 -----------------------------------------------------------------------------
|                                                                             |
|               ----> ADVICE to this user running VASP <----                  |
|                                                                             |
|     You have a (more or less) 'large supercell' and for larger cells it     |
|     might be more efficient to use real-space projection operators.         |
|     Therefore, try LREAL= Auto in the INCAR file.                           |
|     Mind: For very accurate calculation, you might also keep the            |
|     reciprocal projection scheme (i.e. LREAL=.FALSE.).                      |
|                                                                             |
 -----------------------------------------------------------------------------

  PAW_PBE C_h 06Feb2004                 :
 energy of atom  1       EATOM= -147.1560
 kinetic energy error for atom=    0.0031 (will be added to EATOM!!)
  PAW_PBE H_h 06Feb2004                 :
 energy of atom  2       EATOM=  -12.4884
 kinetic energy error for atom=    0.0006 (will be added to EATOM!!)
  PAW_PBE N_h 06Feb2004                 :
 energy of atom  3       EATOM= -264.5486
 kinetic energy error for atom=    0.0081 (will be added to EATOM!!)


 POSCAR:  C  H  N
  positions in cartesian coordinates
  No initial velocities read in
 exchange correlation table for  LEXCH =        8
   RHO(1)=    0.500       N(1)  =     2000
   RHO(2)=  100.500       N(2)  =     4000

 VTST: version 4.1, (05/19/21)

 CHAIN: initializing optimizer
 
 OPT: Using VASP Dynamics algorithm
 CHAIN: Read ICHAIN            0

 POSCAR:  C  H  N
  positions in cartesian coordinates
  No initial velocities read in



--------------------------------------------------------------------------------------------------------


 ion  position               nearest neighbor table
   1  0.528  0.462  0.452-   7 1.10   8 1.10  20 1.48  19 1.48
   2  0.450  0.435  0.500-   9 1.10  10 1.10  19 1.48  21 1.48
   3  0.528  0.462  0.548-  11 1.10  12 1.10  22 1.48  19 1.48
   4  0.450  0.517  0.452-  14 1.10  13 1.10  20 1.48  21 1.48
   5  0.528  0.545  0.500-  15 1.10  16 1.10  22 1.48  20 1.48
   6  0.450  0.517  0.548-  18 1.10  17 1.10  22 1.48  21 1.48
   7  0.572  0.462  0.452-   1 1.10
   8  0.513  0.441  0.416-   1 1.10
   9  0.435  0.414  0.464-   2 1.10
  10  0.435  0.414  0.536-   2 1.10
  11  0.572  0.462  0.548-   3 1.10
  12  0.513  0.441  0.584-   3 1.10
  13  0.435  0.497  0.416-   4 1.10
  14  0.435  0.559  0.452-   4 1.10
  15  0.572  0.545  0.500-   5 1.10
  16  0.513  0.586  0.500-   5 1.10
  17  0.435  0.497  0.584-   6 1.10
  18  0.435  0.559  0.548-   6 1.10
  19  0.509  0.433  0.500-   2 1.48   1 1.48   3 1.48
  20  0.509  0.518  0.451-   4 1.48   1 1.48   5 1.48
  21  0.428  0.490  0.500-   2 1.48   4 1.48   6 1.48
  22  0.509  0.518  0.549-   6 1.48   3 1.48   5 1.48

  LATTYP: Found a simple cubic cell.
 ALAT       =    25.0000000000
  
  Lattice vectors:
  
 A1 = (  25.0000000000,   0.0000000000,   0.0000000000)
 A2 = (   0.0000000000,  25.0000000000,   0.0000000000)
 A3 = (   0.0000000000,   0.0000000000,  25.0000000000)


Analysis of symmetry for initial positions (statically):
=====================================================================
 Subroutine PRICEL returns:
 Original cell was already a primitive cell.
 

 Routine SETGRP: Setting up the symmetry group for a 
 simple cubic supercell.


 Subroutine GETGRP returns: Found  1 space group operations
 (whereof  1 operations were pure point group operations)
 out of a pool of 48 trial point group operations.


The static configuration has the point symmetry C_1 .


Analysis of symmetry for dynamics (positions and initial velocities):
=====================================================================
 Subroutine PRICEL returns:
 Original cell was already a primitive cell.
 

 Routine SETGRP: Setting up the symmetry group for a 
 simple cubic supercell.


 Subroutine GETGRP returns: Found  1 space group operations
 (whereof  1 operations were pure point group operations)
 out of a pool of 48 trial point group operations.


The dynamic configuration has the point symmetry C_1 .


 Subroutine INISYM returns: Found  1 space group operations
 (whereof  1 operations are pure point group operations),
 and found     1 'primitive' translations


----------------------------------------------------------------------------------------

                                     Primitive cell                                     

  volume of cell :   15625.0000

  direct lattice vectors                    reciprocal lattice vectors
    25.000000000  0.000000000  0.000000000     0.040000000  0.000000000  0.000000000
     0.000000000 25.000000000  0.000000000     0.000000000  0.040000000  0.000000000
     0.000000000  0.000000000 25.000000000     0.000000000  0.000000000  0.040000000

  length of vectors
    25.000000000 25.000000000 25.000000000     0.040000000  0.040000000  0.040000000

  position of ions in fractional coordinates (direct lattice)
     0.527544000  0.462106000  0.452254000
     0.449584000  0.434546000  0.499998000
     0.527544000  0.462106000  0.547742000
     0.449588000  0.517234000  0.452250000
     0.527544000  0.544802000  0.499998000
     0.449588000  0.517234000  0.547750000
     0.571600000  0.461930000  0.451950000
     0.513180000  0.441278000  0.416178000
     0.434724000  0.413542000  0.464230000
     0.434724000  0.413542000  0.535766000
     0.571600000  0.461930000  0.548046000
     0.513180000  0.441278000  0.583818000
     0.434724000  0.496754000  0.416178000
     0.434724000  0.558710000  0.451950000
     0.571600000  0.545154000  0.499998000
     0.513180000  0.586458000  0.499998000
     0.434724000  0.496754000  0.583822000
     0.434724000  0.558710000  0.548046000
     0.508616000  0.432942000  0.499998000
     0.508620000  0.518034000  0.450866000
     0.428400000  0.489674000  0.499998000
     0.508620000  0.518034000  0.549126000

  ion indices of the primitive-cell ions
   primitive index   ion index
                 1           1
                 2           2
                 3           3
                 4           4
                 5           5
                 6           6
                 7           7
                 8           8
                 9           9
                10          10
                11          11
                12          12
                13          13
                14          14
                15          15
                16          16
                17          17
                18          18
                19          19
                20          20
                21          21
                22          22

----------------------------------------------------------------------------------------



 KPOINTS: auto                                    

Automatic generation of k-mesh.
 Grid dimensions read from file:
 generate k-points for:    1    1    1

 Generating k-lattice:

  Cartesian coordinates                     Fractional coordinates (reciprocal lattice)
     0.040000000  0.000000000  0.000000000     1.000000000  0.000000000  0.000000000
     0.000000000  0.040000000  0.000000000     0.000000000  1.000000000  0.000000000
     0.000000000  0.000000000  0.040000000     0.000000000  0.000000000  1.000000000

  Length of vectors
     0.040000000  0.040000000  0.040000000

  Shift w.r.t. Gamma in fractional coordinates (k-lattice)
     0.000000000  0.000000000  0.000000000

 
 Subroutine IBZKPT returns following result:
 ===========================================
 
 Found      1 irreducible k-points:
 
 Following reciprocal coordinates:
            Coordinates               Weight
  0.000000  0.000000  0.000000      1.000000
 
 Following cartesian coordinates:
            Coordinates               Weight
  0.000000  0.000000  0.000000      1.000000
 


--------------------------------------------------------------------------------------------------------




 Dimension of arrays:
   k-points           NKPTS =      1   k-points in BZ     NKDIM =      1   number of bands    NBANDS=     40
   number of dos      NEDOS =    301   number of ions     NIONS =     22
   non local maximal  LDIM  =      4   non local SUM 2l+1 LMDIM =      8
   total plane-waves  NPLWV = ******
   max r-space proj   IRMAX =      1   max aug-charges    IRDMAX=   9146
   dimension x,y,z NGX =   270 NGY =  270 NGZ =  270
   dimension x,y,z NGXF=   540 NGYF=  540 NGZF=  540
   support grid    NGXF=   540 NGYF=  540 NGZF=  540
   ions per type =               6  12   4
   NGX,Y,Z   is equivalent  to a cutoff of  17.95, 17.95, 17.95 a.u.
   NGXF,Y,Z  is equivalent  to a cutoff of  35.91, 35.91, 35.91 a.u.

 SYSTEM =  unknown system                          
 POSCAR =   C  H  N                                

 Startparameter for this run:
   NWRITE =      2    write-flag & timer
   PREC   = accura    normal or accurate (medium, high low for compatibility)
   ISTART =      0    job   : 0-new  1-cont  2-samecut
   ICHARG =      2    charge: 1-file 2-atom 10-const
   ISPIN  =      1    spin polarized calculation?
   LNONCOLLINEAR =      F non collinear calculations
   LSORBIT =      F    spin-orbit coupling
   INIWAV =      1    electr: 0-lowe 1-rand  2-diag
   LASPH  =      F    aspherical Exc in radial PAW
 Electronic Relaxation 1
   ENCUT  = 1000.0 eV  73.50 Ry    8.57 a.u.  64.46 64.46 64.46*2*pi/ulx,y,z
   ENINI  = 1000.0     initial cutoff
   ENAUG  = 1000.0 eV  augmentation charge cutoff
   NELM   =     60;   NELMIN=  2; NELMDL= -5     # of ELM steps 
   EDIFF  = 0.1E-06   stopping-criterion for ELM
   LREAL  =      F    real-space projection
   NLSPLINE    = F    spline interpolate recip. space projectors
   LCOMPAT=      F    compatible to vasp.4.4
   GGA_COMPAT  = T    GGA compatible to vasp.4.4-vasp.4.6
   LMAXPAW     = -100 max onsite density
   LMAXMIX     =    2 max onsite mixed and CHGCAR
   VOSKOWN=      0    Vosko Wilk Nusair interpolation
   ROPT   =    0.00000   0.00000   0.00000
 Ionic relaxation
   EDIFFG = 0.1E-05   stopping-criterion for IOM
   NSW    =      0    number of steps for IOM
   NBLOCK =      1;   KBLOCK =      1    inner block; outer block 
   IBRION =     -1    ionic relax: 0-MD 1-quasi-New 2-CG
   NFREE  =      0    steps in history (QN), initial steepest desc. (CG)
   ISIF   =      0    stress and relaxation
   IWAVPR =     10    prediction:  0-non 1-charg 2-wave 3-comb
   ISYM   =      2    0-nonsym 1-usesym 2-fastsym
   LCORR  =      T    Harris-Foulkes like correction to forces

   POTIM  = 0.5000    time-step for ionic-motion
   TEIN   =    0.0    initial temperature
   TEBEG  =    0.0;   TEEND  =   0.0 temperature during run
   SMASS  =  -3.00    Nose mass-parameter (am)
   estimated Nose-frequenzy (Omega)   =  0.10E-29 period in steps = 0.13E+47 mass=  -0.143E-25a.u.
   SCALEE = 1.0000    scale energy and forces
   NPACO  =    256;   APACO  = 10.0  distance and # of slots for P.C.
   PSTRESS=    0.0 pullay stress

  Mass of Ions in am
   POMASS =  12.01  1.00 14.00
  Ionic Valenz
   ZVAL   =   4.00  1.00  5.00
  Atomic Wigner-Seitz radii
   RWIGS  =  -1.00 -1.00 -1.00
  virtual crystal weights 
   VCA    =   1.00  1.00  1.00
   NELECT =      56.0000    total number of electrons
   NUPDOWN=      -1.0000    fix difference up-down

 DOS related values:
   EMIN   =  10.00;   EMAX   =-10.00  energy-range for DOS
   EFERMI =   0.00;   METHOD = LEGACY      
   ISMEAR =     0;   SIGMA  =   0.01  broadening in eV -4-tet -1-fermi 0-gaus

 Electronic relaxation 2 (details)
   IALGO  =     58    algorithm
   LDIAG  =      T    sub-space diagonalisation (order eigenvalues)
   LSUBROT=      F    optimize rotation matrix (better conditioning)
   TURBO    =      0    0=normal 1=particle mesh
   IRESTART =      0    0=no restart 2=restart with 2 vectors
   NREBOOT  =      0    no. of reboots
   NMIN     =      0    reboot dimension
   EREF     =   0.00    reference energy to select bands
   IMIX   =      4    mixing-type and parameters
     AMIX     =   0.40;   BMIX     =  1.00
     AMIX_MAG =   1.60;   BMIX_MAG =  1.00
     AMIN     =   0.10
     WC   =   100.;   INIMIX=   1;  MIXPRE=   1;  MAXMIX= -45

 Intra band minimization:
   WEIMIN = 0.0000     energy-eigenvalue tresh-hold
   EBREAK =  0.63E-09  absolut break condition
   DEPER  =   0.30     relativ break condition  

   TIME   =   0.40     timestep for ELM

  volume/ion in A,a.u.               =     710.23      4792.85
  Fermi-wavevector in a.u.,A,eV,Ry     =   0.250533  0.473438  0.853991  0.062767
  Thomas-Fermi vector in A             =   1.067299

 Write flags
   LWAVE        =      F    write WAVECAR
   LDOWNSAMPLE  =      F    k-point downsampling of WAVECAR
   LCHARG       =      F    write CHGCAR
   LVTOT        =      F    write LOCPOT, total local potential
   LVHAR        =      F    write LOCPOT, Hartree potential only
   LELF         =      F    write electronic localiz. function (ELF)
   LORBIT       =      0    0 simple, 1 ext, 2 COOP (PROOUT), +10 PAW based schemes


 Dipole corrections
   LMONO  =      F    monopole corrections only (constant potential shift)
   LDIPOL =      F    correct potential (dipole corrections)
   IDIPOL =      0    1-x, 2-y, 3-z, 4-all directions 
   EPSILON=  1.0000000 bulk dielectric constant

 Exchange correlation treatment:
   GGA     =    --    GGA type
   LEXCH   =     8    internal setting for exchange type
   LIBXC   =     F    Libxc                    
   VOSKOWN =     0    Vosko Wilk Nusair interpolation
   LHFCALC =     F    Hartree Fock is set to
   LHFONE  =     F    Hartree Fock one center treatment
   AEXX    =    0.0000 exact exchange contribution

 Linear response parameters
   LEPSILON=     F    determine dielectric tensor
   LRPA    =     F    only Hartree local field effects (RPA)
   LNABLA  =     F    use nabla operator in PAW spheres
   LVEL    =     F    velocity operator in full k-point grid
   CSHIFT  =0.1000    complex shift for real part using Kramers Kronig
   OMEGAMAX=  -1.0    maximum frequency
   DEG_THRESHOLD= 0.2000000E-02 threshold for treating states as degnerate
   RTIME   =   -0.100 relaxation time in fs
  (WPLASMAI=    0.000 imaginary part of plasma frequency in eV, 0.658/RTIME)
   DFIELD  = 0.0000000 0.0000000 0.0000000 field for delta impulse in time

  Optional k-point grid parameters
   LKPOINTS_OPT  =     F    use optional k-point grid
   KPOINTS_OPT_MODE=     1    mode for optional k-point grid

 Orbital magnetization related:
   ORBITALMAG=     F  switch on orbital magnetization
   LCHIMAG   =     F  perturbation theory with respect to B field
   DQ        =  0.001000  dq finite difference perturbation B field
   LLRAUG    =     F  two centre corrections for induced B field
   LBONE     =     F  B-component reconstruction in AE one-centre
   LVGVCALC  =     T  calculate vGv susceptibility
   LVGVAPPL  =     F  apply vGv susceptibility instead of pGv for G=0

 Random number generation:
   RANDOM_GENERATOR = DEFAULT
   PCG_SEED         = not used


--------------------------------------------------------------------------------------------------------


 Static calculation
 charge density and potential will be updated during run
 non-spin polarized calculation
 Conjugate gradient for all bands (Freysoldt, et al. PRB 79, 241103 (2009))
 preconditioned conjugated gradient                                        
 perform sub-space diagonalisation
    before iterative eigenvector-optimisation
 modified Broyden-mixing scheme, WC =      100.0
 initial mixing is a Kerker type mixing with AMIX =  0.4000 and BMIX =      1.0000
 Hartree-type preconditioning will be used
 using additional bands           12
 reciprocal scheme for non local part
 use partial core corrections
 no Harris-corrections to forces 
 use gradient corrections 
 use of overlap-Matrix (Vanderbilt PP)
 Gauss-broadening in eV      SIGMA  =   0.01


--------------------------------------------------------------------------------------------------------


  energy-cutoff  :     1000.00
  volume of cell :    15625.00
      direct lattice vectors                 reciprocal lattice vectors
    25.000000000  0.000000000  0.000000000     0.040000000  0.000000000  0.000000000
     0.000000000 25.000000000  0.000000000     0.000000000  0.040000000  0.000000000
     0.000000000  0.000000000 25.000000000     0.000000000  0.000000000  0.040000000

  length of vectors
    25.000000000 25.000000000 25.000000000     0.040000000  0.040000000  0.040000000



 k-points in units of 2pi/SCALE and weight: auto                                    
   0.00000000  0.00000000  0.00000000       1.000

 k-points in reciprocal lattice and weights: auto                                    
   0.00000000  0.00000000  0.00000000       1.000

 position of ions in fractional coordinates (direct lattice) 
   0.52754400  0.46210600  0.45225400
   0.44958400  0.43454600  0.49999800
   0.52754400  0.46210600  0.54774200
   0.44958800  0.51723400  0.45225000
   0.52754400  0.54480200  0.49999800
   0.44958800  0.51723400  0.54775000
   0.57160000  0.46193000  0.45195000
   0.51318000  0.44127800  0.41617800
   0.43472400  0.41354200  0.46423000
   0.43472400  0.41354200  0.53576600
   0.57160000  0.46193000  0.54804600
   0.51318000  0.44127800  0.58381800
   0.43472400  0.49675400  0.41617800
   0.43472400  0.55871000  0.45195000
   0.57160000  0.54515400  0.49999800
   0.51318000  0.58645800  0.49999800
   0.43472400  0.49675400  0.58382200
   0.43472400  0.55871000  0.54804600
   0.50861600  0.43294200  0.49999800
   0.50862000  0.51803400  0.45086600
   0.42840000  0.48967400  0.49999800
   0.50862000  0.51803400  0.54912600

 position of ions in cartesian coordinates  (Angst):
  13.18860000 11.55265000 11.30635000
  11.23960000 10.86365000 12.49995000
  13.18860000 11.55265000 13.69355000
  11.23970000 12.93085000 11.30625000
  13.18860000 13.62005000 12.49995000
  11.23970000 12.93085000 13.69375000
  14.29000000 11.54825000 11.29875000
  12.82950000 11.03195000 10.40445000
  10.86810000 10.33855000 11.60575000
  10.86810000 10.33855000 13.39415000
  14.29000000 11.54825000 13.70115000
  12.82950000 11.03195000 14.59545000
  10.86810000 12.41885000 10.40445000
  10.86810000 13.96775000 11.29875000
  14.29000000 13.62885000 12.49995000
  12.82950000 14.66145000 12.49995000
  10.86810000 12.41885000 14.59555000
  10.86810000 13.96775000 13.70115000
  12.71540000 10.82355000 12.49995000
  12.71550000 12.95085000 11.27165000
  10.71000000 12.24185000 12.49995000
  12.71550000 12.95085000 13.72815000



--------------------------------------------------------------------------------------------------------


 use parallel FFT for orbitals z direction half grid
 k-point   1 :   0.0000 0.0000 0.0000  plane waves:  561155

 maximum and minimum number of plane-waves per node :     17542    17530

 maximum number of plane-waves:    561155
 maximum index in each direction: 
   IXMAX=   64   IYMAX=   64   IZMAX=   64
   IXMIN=  -64   IYMIN=  -64   IZMIN=    0


 parallel 3D FFT for wavefunctions:
    minimum data exchange during FFTs selected (reduces bandwidth)
 parallel 3D FFT for charge:
    minimum data exchange during FFTs selected (reduces bandwidth)


 total amount of memory used by VASP MPI-rank0   167364. kBytes
=======================================================================

   base      :      30000. kBytes
   nonl-proj :       9539. kBytes
   fftplans  :      41190. kBytes
   grid      :      82425. kBytes
   one-center:          1. kBytes
   wavefun   :       4209. kBytes

     INWAV:  cpu time      0.0000: real time      0.0000
 Broyden mixing: mesh for mixing (old mesh)
   NGX =129   NGY =129   NGZ =129
  (NGX  =540   NGY  =540   NGZ  =540)
  gives a total of ****** points

 initial charge density was supplied:
 charge density of overlapping atoms calculated
 number of electron      56.0000000 magnetization 
 keeping initial charge density in first step


--------------------------------------------------------------------------------------------------------


 Maximum index for augmentation-charges            0 (set IRDMAX)


--------------------------------------------------------------------------------------------------------


 First call to EWALD:  gamma=   0.071
 Maximum number of real-space cells 3x 3x 3
 Maximum number of reciprocal cells 3x 3x 3

    FEWALD:  cpu time      0.0051: real time      0.0051


--------------------------------------- Ionic step        1  -------------------------------------------




--------------------------------------- Iteration      1(   1)  ---------------------------------------


    POTLOK:  cpu time      1.1975: real time      1.1987
    SETDIJ:  cpu time      0.0171: real time      0.0192
    TRIAL :  cpu time      1.6728: real time      1.6746
    CORREC:  cpu time      0.0026: real time      0.0026
    --------------------------------------------
      LOOP:  cpu time      2.9049: real time      2.9102

 eigenvalue-minimisations  :    96
 total energy-change (2. order) : 0.5907057E+03  (-0.1431882E+04)
 number of electron      56.0000000 magnetization 
 augmentation part       56.0000000 magnetization 

 Free energy of the ion-electron system (eV)
  ---------------------------------------------------
  alpha Z        PSCENC =         0.61187337
  Ewald energy   TEWEN  =      6596.92229518
  -Hartree energ DENC   =     -8035.09987111
  -exchange      EXHF   =         0.00000000
  -V(xc)+E(xc)   XCENC  =       140.46201058
  PAW double counting   =      1525.30504351    -1488.52757300
  entropy T*S    EENTRO =        -0.00328725
  eigenvalues    EBANDS =      -239.89753927
  atomic energy  EATOM  =      2090.93278114
  ---------------------------------------------------
  free energy    TOTEN  =       590.70573314 eV

  energy without entropy =      590.70902039  energy(sigma->0) =      590.70737677


--------------------------------------------------------------------------------------------------------




--------------------------------------- Iteration      1(   2)  ---------------------------------------


    TRIAL :  cpu time      2.1182: real time      2.1190
    CORREC:  cpu time      0.0005: real time      0.0005
    --------------------------------------------
      LOOP:  cpu time      2.1319: real time      2.1489

 eigenvalue-minimisations  :   136
 total energy-change (2. order) :-0.2809790E+03  (-0.2657663E+03)
 number of electron      56.0000000 magnetization 
 augmentation part       56.0000000 magnetization 

 Free energy of the ion-electron system (eV)
  ---------------------------------------------------
  alpha Z        PSCENC =         0.61187337
  Ewald energy   TEWEN  =      6596.92229518
  -Hartree energ DENC   =     -8035.09987111
  -exchange      EXHF   =         0.00000000
  -V(xc)+E(xc)   XCENC  =       140.46201058
  PAW double counting   =      1525.30504351    -1488.52757300
  entropy T*S    EENTRO =        -0.00053285
  eigenvalues    EBANDS =      -520.87930822
  atomic energy  EATOM  =      2090.93278114
  ---------------------------------------------------
  free energy    TOTEN  =       309.72671859 eV

  energy without entropy =      309.72725144  energy(sigma->0) =      309.72698501


--------------------------------------------------------------------------------------------------------




--------------------------------------- Iteration      1(   3)  ---------------------------------------


    TRIAL :  cpu time      2.0202: real time      2.0212
    CORREC:  cpu time      0.0001: real time      0.0001
    --------------------------------------------
      LOOP:  cpu time      2.0376: real time      2.0511

 eigenvalue-minimisations  :   128
 total energy-change (2. order) :-0.3082949E+03  (-0.2985193E+03)
 number of electron      56.0000000 magnetization 
 augmentation part       56.0000000 magnetization 

 Free energy of the ion-electron system (eV)
  ---------------------------------------------------
  alpha Z        PSCENC =         0.61187337
  Ewald energy   TEWEN  =      6596.92229518
  -Hartree energ DENC   =     -8035.09987111
  -exchange      EXHF   =         0.00000000
  -V(xc)+E(xc)   XCENC  =       140.46201058
  PAW double counting   =      1525.30504351    -1488.52757300
  entropy T*S    EENTRO =        -0.00000000
  eigenvalues    EBANDS =      -829.17469714
  atomic energy  EATOM  =      2090.93278114
  ---------------------------------------------------
  free energy    TOTEN  =         1.43186252 eV

  energy without entropy =        1.43186252  energy(sigma->0) =        1.43186252


--------------------------------------------------------------------------------------------------------




--------------------------------------- Iteration      1(   4)  ---------------------------------------


    TRIAL :  cpu time      1.8266: real time      1.8277
    CORREC:  cpu time      0.0001: real time      0.0001
    --------------------------------------------
      LOOP:  cpu time      1.8558: real time      1.8571

 eigenvalue-minimisations  :   112
 total energy-change (2. order) :-0.1277021E+03  (-0.1273597E+03)
 number of electron      56.0000000 magnetization 
 augmentation part       56.0000000 magnetization 

 Free energy of the ion-electron system (eV)
  ---------------------------------------------------
  alpha Z        PSCENC =         0.61187337
  Ewald energy   TEWEN  =      6596.92229518
  -Hartree energ DENC   =     -8035.09987111
  -exchange      EXHF   =         0.00000000
  -V(xc)+E(xc)   XCENC  =       140.46201058
  PAW double counting   =      1525.30504351    -1488.52757300
  entropy T*S    EENTRO =        -0.00000000
  eigenvalues    EBANDS =      -956.87675213
  atomic energy  EATOM  =      2090.93278114
  ---------------------------------------------------
  free energy    TOTEN  =      -126.27019247 eV

  energy without entropy =     -126.27019247  energy(sigma->0) =     -126.27019247


--------------------------------------------------------------------------------------------------------




--------------------------------------- Iteration      1(   5)  ---------------------------------------


    TRIAL :  cpu time      1.6336: real time      1.6345
    CORREC:  cpu time      0.0001: real time      0.0001
    CHARGE:  cpu time      0.3927: real time      0.3942
    --------------------------------------------
      LOOP:  cpu time      2.0435: real time      2.0586

 eigenvalue-minimisations  :    96
 total energy-change (2. order) :-0.1338738E+02  (-0.1336495E+02)
 number of electron      56.0000000 magnetization 
 augmentation part       -0.0774017 magnetization 

 Free energy of the ion-electron system (eV)
  ---------------------------------------------------
  alpha Z        PSCENC =         0.61187337
  Ewald energy   TEWEN  =      6596.92229518
  -Hartree energ DENC   =     -8035.09987111
  -exchange      EXHF   =         0.00000000
  -V(xc)+E(xc)   XCENC  =       140.46201058
  PAW double counting   =      1525.30504351    -1488.52757300
  entropy T*S    EENTRO =        -0.00000000
  eigenvalues    EBANDS =      -970.26413027
  atomic energy  EATOM  =      2090.93278114
  ---------------------------------------------------
  free energy    TOTEN  =      -139.65757061 eV

  energy without entropy =     -139.65757061  energy(sigma->0) =     -139.65757061


--------------------------------------------------------------------------------------------------------




--------------------------------------- Iteration      1(   6)  ---------------------------------------


    POTLOK:  cpu time      1.2166: real time      1.2178
    SETDIJ:  cpu time      0.0084: real time      0.0084
    TRIAL :  cpu time      0.9615: real time      0.9624
    CORREC:  cpu time      1.8674: real time      1.8685
    CHARGE:  cpu time      0.3688: real time      0.3693
    --------------------------------------------
      LOOP:  cpu time      4.4374: real time      4.4563

 eigenvalue-minimisations  :     0
 total energy-change (2. order) : 0.1684940E+02  (-0.5860729E+01)
 number of electron      56.0000000 magnetization 
 augmentation part       -0.0843143 magnetization 

 Free energy of the ion-electron system (eV)
  ---------------------------------------------------
  alpha Z        PSCENC =         0.61187337
  Ewald energy   TEWEN  =      6596.92229518
  -Hartree energ DENC   =     -8521.42457570
  -exchange      EXHF   =         0.00000000
  -V(xc)+E(xc)   XCENC  =       157.78125364
  PAW double counting   =     15404.46933188   -15369.54440545
  entropy T*S    EENTRO =        -0.00000000
  eigenvalues    EBANDS =      -482.55672361
  atomic energy  EATOM  =      2090.93278114
  ---------------------------------------------------
  free energy    TOTEN  =      -122.80816956 eV

  energy without entropy =     -122.80816956  energy(sigma->0) =     -122.80816956


--------------------------------------------------------------------------------------------------------




--------------------------------------- Iteration      1(   7)  ---------------------------------------


    POTLOK:  cpu time      1.2125: real time      1.2130
    SETDIJ:  cpu time      0.0215: real time      0.0215
    TRIAL :  cpu time      0.9480: real time      0.9487
    CORREC:  cpu time      1.8678: real time      1.8690
    CHARGE:  cpu time      0.3671: real time      0.3672
    --------------------------------------------
      LOOP:  cpu time      4.4468: real time      4.4494

 eigenvalue-minimisations  :     0
 total energy-change (2. order) :-0.5911555E+01  (-0.8967003E+00)
 number of electron      56.0000000 magnetization 
 augmentation part       -0.1013756 magnetization 

 Free energy of the ion-electron system (eV)
  ---------------------------------------------------
  alpha Z        PSCENC =         0.61187337
  Ewald energy   TEWEN  =      6596.92229518
  -Hartree energ DENC   =     -8306.40882791
  -exchange      EXHF   =         0.00000000
  -V(xc)+E(xc)   XCENC  =       151.88681210
  PAW double counting   =     18548.81657807   -18513.14004400
  entropy T*S    EENTRO =        -0.00000000
  eigenvalues    EBANDS =      -698.34119292
  atomic energy  EATOM  =      2090.93278114
  ---------------------------------------------------
  free energy    TOTEN  =      -128.71972499 eV

  energy without entropy =     -128.71972499  energy(sigma->0) =     -128.71972499


--------------------------------------------------------------------------------------------------------




--------------------------------------- Iteration      1(   8)  ---------------------------------------


    POTLOK:  cpu time      1.2133: real time      1.2139
    SETDIJ:  cpu time      0.0167: real time      0.0167
    TRIAL :  cpu time      0.9493: real time      0.9498
    CORREC:  cpu time      1.8605: real time      1.8617
    CHARGE:  cpu time      0.3679: real time      0.3684
    --------------------------------------------
      LOOP:  cpu time      4.4247: real time      4.4406

 eigenvalue-minimisations  :     0
 total energy-change (2. order) :-0.9024249E+00  (-0.3186595E+00)
 number of electron      56.0000000 magnetization 
 augmentation part       -0.0988727 magnetization 

 Free energy of the ion-electron system (eV)
  ---------------------------------------------------
  alpha Z        PSCENC =         0.61187337
  Ewald energy   TEWEN  =      6596.92229518
  -Hartree energ DENC   =     -8313.96035706
  -exchange      EXHF   =         0.00000000
  -V(xc)+E(xc)   XCENC  =       151.66997504
  PAW double counting   =     19953.50507747   -19917.66828426
  entropy T*S    EENTRO =        -0.00000000
  eigenvalues    EBANDS =      -691.63551078
  atomic energy  EATOM  =      2090.93278114
  ---------------------------------------------------
  free energy    TOTEN  =      -129.62214990 eV

  energy without entropy =     -129.62214990  energy(sigma->0) =     -129.62214990


--------------------------------------------------------------------------------------------------------




--------------------------------------- Iteration      1(   9)  ---------------------------------------


    POTLOK:  cpu time      1.2075: real time      1.2080
    SETDIJ:  cpu time      0.0199: real time      0.0199
    TRIAL :  cpu time      0.9499: real time      0.9503
    CORREC:  cpu time      1.8627: real time      1.8637
    CHARGE:  cpu time      0.3679: real time      0.3683
    --------------------------------------------
      LOOP:  cpu time      4.4227: real time      4.4406

 eigenvalue-minimisations  :     0
 total energy-change (2. order) :-0.3147156E+00  (-0.1441898E+00)
 number of electron      56.0000000 magnetization 
 augmentation part       -0.0972500 magnetization 

 Free energy of the ion-electron system (eV)
  ---------------------------------------------------
  alpha Z        PSCENC =         0.61187337
  Ewald energy   TEWEN  =      6596.92229518
  -Hartree energ DENC   =     -8303.25644456
  -exchange      EXHF   =         0.00000000
  -V(xc)+E(xc)   XCENC  =       151.37602803
  PAW double counting   =     20171.56397227   -20135.66205198
  entropy T*S    EENTRO =        -0.00000000
  eigenvalues    EBANDS =      -702.42531894
  atomic energy  EATOM  =      2090.93278114
  ---------------------------------------------------
  free energy    TOTEN  =      -129.93686549 eV

  energy without entropy =     -129.93686549  energy(sigma->0) =     -129.93686549


--------------------------------------------------------------------------------------------------------




--------------------------------------- Iteration      1(  10)  ---------------------------------------


    POTLOK:  cpu time      1.2113: real time      1.2118
    SETDIJ:  cpu time      0.0178: real time      0.0178
    TRIAL :  cpu time      0.9497: real time      0.9501
    CORREC:  cpu time      1.8547: real time      1.8559
    CHARGE:  cpu time      0.3674: real time      0.3679
    --------------------------------------------
      LOOP:  cpu time      4.4316: real time      4.4343

 eigenvalue-minimisations  :     0
 total energy-change (2. order) :-0.1422875E+00  (-0.4225608E-01)
 number of electron      56.0000000 magnetization 
 augmentation part       -0.0951412 magnetization 

 Free energy of the ion-electron system (eV)
  ---------------------------------------------------
  alpha Z        PSCENC =         0.61187337
  Ewald energy   TEWEN  =      6596.92229518
  -Hartree energ DENC   =     -8295.48039750
  -exchange      EXHF   =         0.00000000
  -V(xc)+E(xc)   XCENC  =       151.30628207
  PAW double counting   =     19725.07401477   -19689.18239383
  entropy T*S    EENTRO =        -0.00000000
  eigenvalues    EBANDS =      -710.26360820
  atomic energy  EATOM  =      2090.93278114
  ---------------------------------------------------
  free energy    TOTEN  =      -130.07915301 eV

  energy without entropy =     -130.07915301  energy(sigma->0) =     -130.07915301


--------------------------------------------------------------------------------------------------------




--------------------------------------- Iteration      1(  11)  ---------------------------------------


    POTLOK:  cpu time      1.2067: real time      1.2073
    SETDIJ:  cpu time      0.0239: real time      0.0239
    TRIAL :  cpu time      0.9469: real time      0.9473
    CORREC:  cpu time      1.8452: real time      1.8463
    CHARGE:  cpu time      0.3684: real time      0.3686
    --------------------------------------------
      LOOP:  cpu time      4.4216: real time      4.4241

 eigenvalue-minimisations  :     0
 total energy-change (2. order) :-0.4212498E-01  (-0.1348430E-01)
 number of electron      56.0000000 magnetization 
 augmentation part       -0.0936233 magnetization 

 Free energy of the ion-electron system (eV)
  ---------------------------------------------------
  alpha Z        PSCENC =         0.61187337
  Ewald energy   TEWEN  =      6596.92229518
  -Hartree energ DENC   =     -8295.03748182
  -exchange      EXHF   =         0.00000000
  -V(xc)+E(xc)   XCENC  =       151.32301279
  PAW double counting   =     19391.85982297   -19355.99552193
  entropy T*S    EENTRO =        -0.00000000
  eigenvalues    EBANDS =      -710.73805968
  atomic energy  EATOM  =      2090.93278114
  ---------------------------------------------------
  free energy    TOTEN  =      -130.12127798 eV

  energy without entropy =     -130.12127798  energy(sigma->0) =     -130.12127798


--------------------------------------------------------------------------------------------------------




--------------------------------------- Iteration      1(  12)  ---------------------------------------


    POTLOK:  cpu time      1.2022: real time      1.2028
    SETDIJ:  cpu time      0.0162: real time      0.0162
    TRIAL :  cpu time      0.9486: real time      0.9490
    CORREC:  cpu time      1.8399: real time      1.8411
    CHARGE:  cpu time      0.3669: real time      0.3670
    --------------------------------------------
      LOOP:  cpu time      4.3872: real time      4.4066

 eigenvalue-minimisations  :     0
 total energy-change (2. order) :-0.1348228E-01  (-0.4482529E-02)
 number of electron      56.0000000 magnetization 
 augmentation part       -0.0932353 magnetization 

 Free energy of the ion-electron system (eV)
  ---------------------------------------------------
  alpha Z        PSCENC =         0.61187337
  Ewald energy   TEWEN  =      6596.92229518
  -Hartree energ DENC   =     -8293.66345018
  -exchange      EXHF   =         0.00000000
  -V(xc)+E(xc)   XCENC  =       151.26220810
  PAW double counting   =     19298.68945706   -19262.83590112
  entropy T*S    EENTRO =        -0.00000000
  eigenvalues    EBANDS =      -712.05402381
  atomic energy  EATOM  =      2090.93278114
  ---------------------------------------------------
  free energy    TOTEN  =      -130.13476027 eV

  energy without entropy =     -130.13476027  energy(sigma->0) =     -130.13476027


--------------------------------------------------------------------------------------------------------




--------------------------------------- Iteration      1(  13)  ---------------------------------------


    POTLOK:  cpu time      1.1934: real time      1.1942
    SETDIJ:  cpu time      0.0174: real time      0.0174
    TRIAL :  cpu time      0.9482: real time      0.9492
    CORREC:  cpu time      1.8276: real time      1.8285
    CHARGE:  cpu time      0.3682: real time      0.3686
    --------------------------------------------
      LOOP:  cpu time      4.3675: real time      4.3889

 eigenvalue-minimisations  :     0
 total energy-change (2. order) :-0.4487314E-02  (-0.1867987E-02)
 number of electron      56.0000000 magnetization 
 augmentation part       -0.0930679 magnetization 

 Free energy of the ion-electron system (eV)
  ---------------------------------------------------
  alpha Z        PSCENC =         0.61187337
  Ewald energy   TEWEN  =      6596.92229518
  -Hartree energ DENC   =     -8294.31396148
  -exchange      EXHF   =         0.00000000
  -V(xc)+E(xc)   XCENC  =       151.25566744
  PAW double counting   =     19316.24646615   -19280.39899233
  entropy T*S    EENTRO =        -0.00000000
  eigenvalues    EBANDS =      -711.39537705
  atomic energy  EATOM  =      2090.93278114
  ---------------------------------------------------
  free energy    TOTEN  =      -130.13924758 eV

  energy without entropy =     -130.13924758  energy(sigma->0) =     -130.13924758


--------------------------------------------------------------------------------------------------------




--------------------------------------- Iteration      1(  14)  ---------------------------------------


    POTLOK:  cpu time      1.1752: real time      1.1758
    SETDIJ:  cpu time      0.0192: real time      0.0192
    TRIAL :  cpu time      0.9533: real time      0.9539
    CORREC:  cpu time      1.8101: real time      1.8110
    CHARGE:  cpu time      0.3683: real time      0.3685
    --------------------------------------------
      LOOP:  cpu time      4.3508: real time      4.3615

 eigenvalue-minimisations  :     0
 total energy-change (2. order) :-0.1867780E-02  (-0.8813612E-03)
 number of electron      56.0000000 magnetization 
 augmentation part       -0.0927981 magnetization 

 Free energy of the ion-electron system (eV)
  ---------------------------------------------------
  alpha Z        PSCENC =         0.61187337
  Ewald energy   TEWEN  =      6596.92229518
  -Hartree energ DENC   =     -8295.12249380
  -exchange      EXHF   =         0.00000000
  -V(xc)+E(xc)   XCENC  =       151.26693785
  PAW double counting   =     19360.98262351   -19325.13787049
  entropy T*S    EENTRO =        -0.00000000
  eigenvalues    EBANDS =      -710.59726212
  atomic energy  EATOM  =      2090.93278114
  ---------------------------------------------------
  free energy    TOTEN  =      -130.14111536 eV

  energy without entropy =     -130.14111536  energy(sigma->0) =     -130.14111536


--------------------------------------------------------------------------------------------------------




--------------------------------------- Iteration      1(  15)  ---------------------------------------


    POTLOK:  cpu time      1.1622: real time      1.1628
    SETDIJ:  cpu time      0.0212: real time      0.0212
    TRIAL :  cpu time      0.9485: real time      0.9489
    CORREC:  cpu time      1.8081: real time      1.8089
    CHARGE:  cpu time      0.3685: real time      0.3687
    --------------------------------------------
      LOOP:  cpu time      4.3391: real time      4.3412

 eigenvalue-minimisations  :     0
 total energy-change (2. order) :-0.8817423E-03  (-0.3575645E-03)
 number of electron      56.0000000 magnetization 
 augmentation part       -0.0924613 magnetization 

 Free energy of the ion-electron system (eV)
  ---------------------------------------------------
  alpha Z        PSCENC =         0.61187337
  Ewald energy   TEWEN  =      6596.92229518
  -Hartree energ DENC   =     -8295.04832184
  -exchange      EXHF   =         0.00000000
  -V(xc)+E(xc)   XCENC  =       151.26575257
  PAW double counting   =     19392.77003831   -19356.92455137
  entropy T*S    EENTRO =        -0.00000000
  eigenvalues    EBANDS =      -710.67186446
  atomic energy  EATOM  =      2090.93278114
  ---------------------------------------------------
  free energy    TOTEN  =      -130.14199710 eV

  energy without entropy =     -130.14199710  energy(sigma->0) =     -130.14199710


--------------------------------------------------------------------------------------------------------




--------------------------------------- Iteration      1(  16)  ---------------------------------------


    POTLOK:  cpu time      1.1565: real time      1.1574
    SETDIJ:  cpu time      0.0143: real time      0.0143
    TRIAL :  cpu time      0.9510: real time      0.9514
    CORREC:  cpu time      1.8007: real time      1.8013
    CHARGE:  cpu time      0.3674: real time      0.3679
    --------------------------------------------
      LOOP:  cpu time      4.3056: real time      4.3230

 eigenvalue-minimisations  :     0
 total energy-change (2. order) :-0.3581652E-03  (-0.1267387E-03)
 number of electron      56.0000000 magnetization 
 augmentation part       -0.0923191 magnetization 

 Free energy of the ion-electron system (eV)
  ---------------------------------------------------
  alpha Z        PSCENC =         0.61187337
  Ewald energy   TEWEN  =      6596.92229518
  -Hartree energ DENC   =     -8295.54896720
  -exchange      EXHF   =         0.00000000
  -V(xc)+E(xc)   XCENC  =       151.28051277
  PAW double counting   =     19399.10098854   -19363.25583140
  entropy T*S    EENTRO =        -0.00000000
  eigenvalues    EBANDS =      -710.18600766
  atomic energy  EATOM  =      2090.93278114
  ---------------------------------------------------
  free energy    TOTEN  =      -130.14235527 eV

  energy without entropy =     -130.14235527  energy(sigma->0) =     -130.14235527


--------------------------------------------------------------------------------------------------------




--------------------------------------- Iteration      1(  17)  ---------------------------------------


    POTLOK:  cpu time      1.1514: real time      1.1521
    SETDIJ:  cpu time      0.0202: real time      0.0202
    TRIAL :  cpu time      0.9474: real time      0.9478
    CORREC:  cpu time      1.7978: real time      1.7987
    CHARGE:  cpu time      0.3691: real time      0.3692
    --------------------------------------------
      LOOP:  cpu time      4.3027: real time      4.3197

 eigenvalue-minimisations  :     0
 total energy-change (2. order) :-0.1272834E-03  (-0.4179801E-04)
 number of electron      56.0000000 magnetization 
 augmentation part       -0.0922910 magnetization 

 Free energy of the ion-electron system (eV)
  ---------------------------------------------------
  alpha Z        PSCENC =         0.61187337
  Ewald energy   TEWEN  =      6596.92229518
  -Hartree energ DENC   =     -8295.47853489
  -exchange      EXHF   =         0.00000000
  -V(xc)+E(xc)   XCENC  =       151.28082115
  PAW double counting   =     19399.05134115   -19363.20543878
  entropy T*S    EENTRO =        -0.00000000
  eigenvalues    EBANDS =      -710.25762088
  atomic energy  EATOM  =      2090.93278114
  ---------------------------------------------------
  free energy    TOTEN  =      -130.14248255 eV

  energy without entropy =     -130.14248255  energy(sigma->0) =     -130.14248255


--------------------------------------------------------------------------------------------------------




--------------------------------------- Iteration      1(  18)  ---------------------------------------


    POTLOK:  cpu time      1.1492: real time      1.1497
    SETDIJ:  cpu time      0.0189: real time      0.0189
    TRIAL :  cpu time      0.9500: real time      0.9504
    CORREC:  cpu time      1.7969: real time      1.7978
    CHARGE:  cpu time      0.3679: real time      0.3680
    --------------------------------------------
      LOOP:  cpu time      4.3129: real time      4.3150

 eigenvalue-minimisations  :     0
 total energy-change (2. order) :-0.4190385E-04  (-0.1448277E-04)
 number of electron      56.0000000 magnetization 
 augmentation part       -0.0923172 magnetization 

 Free energy of the ion-electron system (eV)
  ---------------------------------------------------
  alpha Z        PSCENC =         0.61187337
  Ewald energy   TEWEN  =      6596.92229518
  -Hartree energ DENC   =     -8295.50232059
  -exchange      EXHF   =         0.00000000
  -V(xc)+E(xc)   XCENC  =       151.28217475
  PAW double counting   =     19398.22078169   -19362.37459381
  entropy T*S    EENTRO =        -0.00000000
  eigenvalues    EBANDS =      -710.23551620
  atomic energy  EATOM  =      2090.93278114
  ---------------------------------------------------
  free energy    TOTEN  =      -130.14252446 eV

  energy without entropy =     -130.14252446  energy(sigma->0) =     -130.14252446


--------------------------------------------------------------------------------------------------------




--------------------------------------- Iteration      1(  19)  ---------------------------------------


    POTLOK:  cpu time      1.1484: real time      1.1492
    SETDIJ:  cpu time      0.0191: real time      0.0191
    TRIAL :  cpu time      0.9476: real time      0.9480
    CORREC:  cpu time      1.7972: real time      1.7979
    CHARGE:  cpu time      0.3684: real time      0.3691
    --------------------------------------------
      LOOP:  cpu time      4.2932: real time      4.3132

 eigenvalue-minimisations  :     0
 total energy-change (2. order) :-0.1440200E-04  (-0.5420556E-05)
 number of electron      56.0000000 magnetization 
 augmentation part       -0.0923500 magnetization 

 Free energy of the ion-electron system (eV)
  ---------------------------------------------------
  alpha Z        PSCENC =         0.61187337
  Ewald energy   TEWEN  =      6596.92229518
  -Hartree energ DENC   =     -8295.47878520
  -exchange      EXHF   =         0.00000000
  -V(xc)+E(xc)   XCENC  =       151.28188536
  PAW double counting   =     19396.90111439   -19361.05478509
  entropy T*S    EENTRO =        -0.00000000
  eigenvalues    EBANDS =      -710.25891801
  atomic energy  EATOM  =      2090.93278114
  ---------------------------------------------------
  free energy    TOTEN  =      -130.14253886 eV

  energy without entropy =     -130.14253886  energy(sigma->0) =     -130.14253886


--------------------------------------------------------------------------------------------------------




--------------------------------------- Iteration      1(  20)  ---------------------------------------


    POTLOK:  cpu time      1.1481: real time      1.1487
    SETDIJ:  cpu time      0.0178: real time      0.0179
    TRIAL :  cpu time      0.9503: real time      0.9506
    CORREC:  cpu time      1.7989: real time      1.8001
    CHARGE:  cpu time      0.3683: real time      0.3685
    --------------------------------------------
      LOOP:  cpu time      4.2963: real time      4.3163

 eigenvalue-minimisations  :     0
 total energy-change (2. order) :-0.5297992E-05  (-0.2162273E-05)
 number of electron      56.0000000 magnetization 
 augmentation part       -0.0923704 magnetization 

 Free energy of the ion-electron system (eV)
  ---------------------------------------------------
  alpha Z        PSCENC =         0.61187337
  Ewald energy   TEWEN  =      6596.92229518
  -Hartree energ DENC   =     -8295.43513376
  -exchange      EXHF   =         0.00000000
  -V(xc)+E(xc)   XCENC  =       151.28093374
  PAW double counting   =     19394.64207614   -19358.79572068
  entropy T*S    EENTRO =        -0.00000000
  eigenvalues    EBANDS =      -710.30164929
  atomic energy  EATOM  =      2090.93278114
  ---------------------------------------------------
  free energy    TOTEN  =      -130.14254416 eV

  energy without entropy =     -130.14254416  energy(sigma->0) =     -130.14254416


--------------------------------------------------------------------------------------------------------




--------------------------------------- Iteration      1(  21)  ---------------------------------------


    POTLOK:  cpu time      1.1497: real time      1.1501
    SETDIJ:  cpu time      0.0167: real time      0.0167
    TRIAL :  cpu time      0.9512: real time      0.9515
    CORREC:  cpu time      1.7978: real time      1.7989
    CHARGE:  cpu time      0.3686: real time      0.3688
    --------------------------------------------
      LOOP:  cpu time      4.3140: real time      4.3161

 eigenvalue-minimisations  :     0
 total energy-change (2. order) :-0.2011537E-05  (-0.7196075E-06)
 number of electron      56.0000000 magnetization 
 augmentation part       -0.0923867 magnetization 

 Free energy of the ion-electron system (eV)
  ---------------------------------------------------
  alpha Z        PSCENC =         0.61187337
  Ewald energy   TEWEN  =      6596.92229518
  -Hartree energ DENC   =     -8295.44667941
  -exchange      EXHF   =         0.00000000
  -V(xc)+E(xc)   XCENC  =       151.28113049
  PAW double counting   =     19392.30567686   -19356.45944345
  entropy T*S    EENTRO =        -0.00000000
  eigenvalues    EBANDS =      -710.29018034
  atomic energy  EATOM  =      2090.93278114
  ---------------------------------------------------
  free energy    TOTEN  =      -130.14254617 eV

  energy without entropy =     -130.14254617  energy(sigma->0) =     -130.14254617


--------------------------------------------------------------------------------------------------------




--------------------------------------- Iteration      1(  22)  ---------------------------------------


    POTLOK:  cpu time      1.1511: real time      1.1519
    SETDIJ:  cpu time      0.0138: real time      0.0138
    TRIAL :  cpu time      0.9520: real time      0.9522
    CORREC:  cpu time      1.8032: real time      1.8039
    CHARGE:  cpu time      0.3673: real time      0.3678
    --------------------------------------------
      LOOP:  cpu time      4.3025: real time      4.3197

 eigenvalue-minimisations  :     0
 total energy-change (2. order) :-0.6842020E-06  (-0.3468493E-06)
 number of electron      56.0000000 magnetization 
 augmentation part       -0.0923915 magnetization 

 Free energy of the ion-electron system (eV)
  ---------------------------------------------------
  alpha Z        PSCENC =         0.61187337
  Ewald energy   TEWEN  =      6596.92229518
  -Hartree energ DENC   =     -8295.41706676
  -exchange      EXHF   =         0.00000000
  -V(xc)+E(xc)   XCENC  =       151.28028665
  PAW double counting   =     19391.45739214   -19355.61113153
  entropy T*S    EENTRO =        -0.00000000
  eigenvalues    EBANDS =      -710.31897703
  atomic energy  EATOM  =      2090.93278114
  ---------------------------------------------------
  free energy    TOTEN  =      -130.14254685 eV

  energy without entropy =     -130.14254685  energy(sigma->0) =     -130.14254685


--------------------------------------------------------------------------------------------------------




--------------------------------------- Iteration      1(  23)  ---------------------------------------


    POTLOK:  cpu time      1.1492: real time      1.1497
    SETDIJ:  cpu time      0.0205: real time      0.0205
    TRIAL :  cpu time      0.9481: real time      0.9485
    CORREC:  cpu time      1.7975: real time      1.7985
    CHARGE:  cpu time      0.3681: real time      0.3683
    --------------------------------------------
      LOOP:  cpu time      4.2990: real time      4.3161

 eigenvalue-minimisations  :     0
 total energy-change (2. order) :-0.2931520E-06  (-0.1091835E-06)
 number of electron      56.0000000 magnetization 
 augmentation part       -0.0923947 magnetization 

 Free energy of the ion-electron system (eV)
  ---------------------------------------------------
  alpha Z        PSCENC =         0.61187337
  Ewald energy   TEWEN  =      6596.92229518
  -Hartree energ DENC   =     -8295.44029562
  -exchange      EXHF   =         0.00000000
  -V(xc)+E(xc)   XCENC  =       151.28072013
  PAW double counting   =     19391.45133879   -19355.60512984
  entropy T*S    EENTRO =        -0.00000000
  eigenvalues    EBANDS =      -710.29613030
  atomic energy  EATOM  =      2090.93278114
  ---------------------------------------------------
  free energy    TOTEN  =      -130.14254715 eV

  energy without entropy =     -130.14254715  energy(sigma->0) =     -130.14254715


--------------------------------------------------------------------------------------------------------




--------------------------------------- Iteration      1(  24)  ---------------------------------------


    POTLOK:  cpu time      1.1580: real time      1.1584
    SETDIJ:  cpu time      0.0068: real time      0.0068
    TRIAL :  cpu time      0.9483: real time      0.9488
    CORREC:  cpu time      1.7985: real time      1.7998
    CHARGE:  cpu time      0.3683: real time      0.3684
    --------------------------------------------
      LOOP:  cpu time      4.3059: real time      4.3153

 eigenvalue-minimisations  :     0
 total energy-change (2. order) :-0.1034496E-06  (-0.6915269E-07)
 number of electron      56.0000000 magnetization 
 augmentation part       -0.0923945 magnetization 

 Free energy of the ion-electron system (eV)
  ---------------------------------------------------
  alpha Z        PSCENC =         0.61187337
  Ewald energy   TEWEN  =      6596.92229518
  -Hartree energ DENC   =     -8295.42958078
  -exchange      EXHF   =         0.00000000
  -V(xc)+E(xc)   XCENC  =       151.28044136
  PAW double counting   =     19391.82164480   -19355.97540367
  entropy T*S    EENTRO =        -0.00000000
  eigenvalues    EBANDS =      -710.30659865
  atomic energy  EATOM  =      2090.93278114
  ---------------------------------------------------
  free energy    TOTEN  =      -130.14254725 eV

  energy without entropy =     -130.14254725  energy(sigma->0) =     -130.14254725


--------------------------------------------------------------------------------------------------------




--------------------------------------- Iteration      1(  25)  ---------------------------------------


    POTLOK:  cpu time      1.1489: real time      1.1499
    SETDIJ:  cpu time      0.0201: real time      0.0201
    TRIAL :  cpu time      0.9486: real time      0.9486
    CORREC:  cpu time      1.7974: real time      1.7987
    EDDIAG:  cpu time      0.4186: real time      0.4192
    CHARGE:  cpu time      0.3674: real time      0.3675
    --------------------------------------------
      LOOP:  cpu time      4.7159: real time      4.7339

 eigenvalue-minimisations  :     0
 total energy-change (2. order) :-0.6348273E-07  (-0.4332242E-07)
 number of electron      56.0000000 magnetization 
 augmentation part       -0.0923921 magnetization 

 Free energy of the ion-electron system (eV)
  ---------------------------------------------------
  alpha Z        PSCENC =         0.61187337
  Ewald energy   TEWEN  =      6596.92229518
  -Hartree energ DENC   =     -8295.42826410
  -exchange      EXHF   =         0.00000000
  -V(xc)+E(xc)   XCENC  =       151.28043337
  PAW double counting   =     19392.19237337   -19356.34611961
  entropy T*S    EENTRO =        -0.00000000
  eigenvalues    EBANDS =      -710.30792003
  atomic energy  EATOM  =      2090.93278114
  ---------------------------------------------------
  free energy    TOTEN  =      -130.14254731 eV

  energy without entropy =     -130.14254731  energy(sigma->0) =     -130.14254731


--------------------------------------------------------------------------------------------------------


  average scaling for gradient   0.9481


 average (electrostatic) potential at core
  the test charge radii are     0.5770  0.4325  0.5902
  (the norm of the test charge is              1.0000)
       1 -87.1514       2 -87.1506       3 -87.1516       4 -87.1511       5 -87.1518
       6 -87.1514       7 -44.9375       8 -44.9363       9 -44.9362      10 -44.9363
      11 -44.9376      12 -44.9365      13 -44.9363      14 -44.9365      15 -44.9377
      16 -44.9368      17 -44.9368      18 -44.9367      19-103.3384      20-103.3387
      21-103.3373      22-103.3389



 E-fermi :  -4.9134     XC(G=0):  -0.1628     alpha+bet : -0.0850

 Fermi energy:        -4.9134293482

 k-point     1 :       0.0000    0.0000    0.0000
  band No.  band energies     occupation 
      1     -25.3154      2.00000
      2     -22.2378      2.00000
      3     -22.2371      2.00000
      4     -22.2355      2.00000
      5     -17.3987      2.00000
      6     -17.3987      2.00000
      7     -16.0341      2.00000
      8     -16.0339      2.00000
      9     -16.0336      2.00000
     10     -13.8349      2.00000
     11     -11.9690      2.00000
     12     -11.9689      2.00000
     13     -11.9686      2.00000
     14     -11.6083      2.00000
     15     -11.6079      2.00000
     16     -11.6077      2.00000
     17      -9.2987      2.00000
     18      -9.2983      2.00000
     19      -9.2979      2.00000
     20      -9.1314      2.00000
     21      -9.1313      2.00000
     22      -8.6403      2.00000
     23      -8.6400      2.00000
     24      -8.6391      2.00000
     25      -8.5244      2.00000
     26      -5.0201      2.00000
     27      -5.0199      2.00000
     28      -5.0194      2.00000
     29      -0.6272      0.00000
     30      -0.0691      0.00000
     31      -0.0691      0.00000
     32      -0.0689      0.00000
     33       0.0896      0.00000
     34       0.2547      0.00000
     35       0.3438      0.00000
     36       0.3759      0.00000
     37       0.3915      0.00000
     38       0.4101      0.00000
     39       0.4734      0.00000
     40       0.4798      0.00000


--------------------------------------------------------------------------------------------------------


 soft charge-density along one line, spin component           1
         0         1         2         3         4         5         6         7         8         9
 total charge-density along one line

 pseudopotential strength for first ion, spin component:           1
 12.751  21.459   0.004   0.006  -0.005   0.007   0.011  -0.009
 21.459  36.111   0.006   0.011  -0.009   0.011   0.019  -0.015
  0.004   0.006  -3.197   0.001   0.000  -5.733   0.001   0.001
  0.006   0.011   0.001  -3.197   0.001   0.001  -5.732   0.001
 -0.005  -0.009   0.000   0.001  -3.196   0.001   0.001  -5.730
  0.007   0.011  -5.733   0.001   0.001 -10.256   0.002   0.001
  0.011   0.019   0.001  -5.732   0.001   0.002 -10.254   0.002
 -0.009  -0.015   0.001   0.001  -5.730   0.001   0.002 -10.252
 total augmentation occupancy for first ion, spin component:           1
  7.236  -2.506   0.113   0.194  -0.158  -0.075  -0.130   0.106
 -2.506   0.915  -0.095  -0.164   0.134   0.051   0.089  -0.073
  0.113  -0.095   5.609  -0.063  -0.009  -1.876   0.082   0.027
  0.194  -0.164  -0.063   5.536  -0.016   0.082  -1.781   0.047
 -0.158   0.134  -0.009  -0.016   5.488   0.027   0.047  -1.696
 -0.075   0.051  -1.876   0.082   0.027   0.645  -0.050  -0.017
 -0.130   0.089   0.082  -1.781   0.047  -0.050   0.587  -0.030
  0.106  -0.073   0.027   0.047  -1.696  -0.017  -0.030   0.533


------------------------ aborting loop because EDIFF is reached ----------------------------------------


    FORLOC:  cpu time      0.0910: real time      0.0910
    FORNL :  cpu time      0.1015: real time      0.1016
    FORCOR:  cpu time      1.0319: real time      1.0325
    OFIELD:  cpu time      0.0057: real time      0.0057

 VOLUME and BASIS-vectors are now :
 -----------------------------------------------------------------------------
  energy-cutoff  :     1000.00
  volume of cell :    15625.00
      direct lattice vectors                 reciprocal lattice vectors
    25.000000000  0.000000000  0.000000000     0.040000000  0.000000000  0.000000000
     0.000000000 25.000000000  0.000000000     0.000000000  0.040000000  0.000000000
     0.000000000  0.000000000 25.000000000     0.000000000  0.000000000  0.040000000

  length of vectors
    25.000000000 25.000000000 25.000000000     0.040000000  0.040000000  0.040000000


 FORCES acting on ions:
    Electron-Ion                     Ewald-Force                    Non-Local-Force
 -----------------------------------------------------------------------------------------------
   -.183E+03 0.130E+03 0.225E+03   0.187E+03 -.132E+03 -.228E+03   -.327E+01 0.231E+01 0.400E+01
   0.183E+03 0.259E+03 -.480E-03   -.187E+03 -.264E+03 0.411E-03   0.326E+01 0.461E+01 0.139E-03
   -.183E+03 0.130E+03 -.225E+03   0.187E+03 -.132E+03 0.228E+03   -.327E+01 0.231E+01 -.400E+01
   0.183E+03 -.130E+03 0.225E+03   -.187E+03 0.132E+03 -.228E+03   0.326E+01 -.231E+01 0.400E+01
   -.183E+03 -.259E+03 0.893E-02   0.186E+03 0.264E+03 -.100E-01   -.327E+01 -.462E+01 0.691E-04
   0.183E+03 -.130E+03 -.225E+03   -.187E+03 0.132E+03 0.228E+03   0.326E+01 -.231E+01 -.400E+01
   -.101E+03 0.200E+02 0.347E+02   0.107E+03 -.201E+02 -.348E+02   -.563E+01 0.821E-01 0.142E+00
   -.401E+01 0.544E+02 0.941E+02   0.229E+01 -.570E+02 -.988E+02   0.172E+01 0.268E+01 0.464E+01
   0.526E+02 0.744E+02 0.595E+02   -.545E+02 -.771E+02 -.640E+02   0.195E+01 0.276E+01 0.450E+01
   0.526E+02 0.744E+02 -.595E+02   -.545E+02 -.771E+02 0.640E+02   0.195E+01 0.276E+01 -.450E+01
   -.101E+03 0.200E+02 -.347E+02   0.107E+03 -.201E+02 0.348E+02   -.563E+01 0.821E-01 -.142E+00
   -.401E+01 0.544E+02 -.941E+02   0.229E+01 -.570E+02 0.988E+02   0.172E+01 0.268E+01 -.464E+01
   0.526E+02 0.143E+02 0.941E+02   -.545E+02 -.168E+02 -.987E+02   0.195E+01 0.252E+01 0.464E+01
   0.526E+02 -.887E+02 0.347E+02   -.545E+02 0.939E+02 -.348E+02   0.195E+01 -.528E+01 0.141E+00
   -.101E+03 -.400E+02 0.925E-04   0.107E+03 0.402E+02 -.113E-03   -.563E+01 -.164E+00 0.211E-04
   -.401E+01 -.109E+03 0.713E-04   0.229E+01 0.114E+03 -.135E-03   0.172E+01 -.536E+01 0.969E-05
   0.526E+02 0.143E+02 -.941E+02   -.545E+02 -.168E+02 0.987E+02   0.195E+01 0.252E+01 -.464E+01
   0.526E+02 -.887E+02 -.347E+02   -.545E+02 0.939E+02 0.348E+02   0.195E+01 -.528E+01 -.141E+00
   -.128E+03 0.363E+03 -.257E-03   0.138E+03 -.392E+03 0.746E-04   -.103E+02 0.292E+02 0.196E-03
   -.128E+03 -.181E+03 0.314E+03   0.138E+03 0.196E+03 -.339E+03   -.103E+02 -.146E+02 0.253E+02
   0.385E+03 -.601E-01 -.986E-02   -.415E+03 0.659E-01 0.107E-01   0.309E+02 -.721E-02 0.699E-03
   -.128E+03 -.181E+03 -.314E+03   0.138E+03 0.196E+03 0.339E+03   -.103E+02 -.146E+02 -.253E+02
 -----------------------------------------------------------------------------------------------
   0.240E-01 0.936E-02 -.570E-02   -.284E-13 -.853E-13 0.000E+00   -.238E-01 -.933E-02 0.567E-02


 POSITION                                       TOTAL-FORCE (eV/Angst)
 -----------------------------------------------------------------------------------
     13.18860     11.55265     11.30635        -0.041236      0.025238      0.045132
     11.23960     10.86365     12.49995         0.033562      0.052415      0.000065
     13.18860     11.55265     13.69355        -0.041159      0.025405     -0.045835
     11.23970     12.93085     11.30625         0.032373     -0.026994      0.048977
     13.18860     13.62005     12.49995        -0.041812     -0.053975     -0.000987
     11.23970     12.93085     13.69375         0.032606     -0.027107     -0.052106
     14.29000     11.54825     11.29875        -0.027476      0.003346      0.006349
     12.82950     11.03195     10.40445         0.004276      0.016031      0.028228
     10.86810     10.33855     11.60575         0.014221      0.019024      0.018973
     10.86810     10.33855     13.39415         0.014221      0.019025     -0.019010
     14.29000     11.54825     13.70115        -0.027462      0.003341     -0.006354
     12.82950     11.03195     14.59545         0.004211      0.016272     -0.028203
     10.86810     12.41885     10.40445         0.015169      0.008127      0.027677
     10.86810     13.96775     11.29875         0.014807     -0.025418      0.005780
     14.29000     13.62885     12.49995        -0.027584     -0.007272      0.000002
     12.82950     14.66145     12.49995         0.003822     -0.032314     -0.000052
     10.86810     12.41885     14.59555         0.015522      0.008191     -0.027874
     10.86810     13.96775     13.70115         0.014768     -0.025455     -0.005356
     12.71540     10.82355     12.49995         0.037473     -0.093917      0.000011
     12.71550     12.95085     11.27165         0.035789      0.049047     -0.080263
     10.71000     12.24185     12.49995        -0.101416     -0.001305      0.001517
     12.71550     12.95085     13.72815         0.035328      0.048297      0.083330
 -----------------------------------------------------------------------------------
    total drift:                                0.000225      0.000030     -0.000034


--------------------------------------------------------------------------------------------------------



  FREE ENERGIE OF THE ION-ELECTRON SYSTEM (eV)
  ---------------------------------------------------
  free  energy   TOTEN  =      -130.14254731 eV

  energy  without entropy=     -130.14254731  energy(sigma->0) =     -130.14254731



--------------------------------------------------------------------------------------------------------


    POTLOK:  cpu time      1.1891: real time      1.1901


--------------------------------------------------------------------------------------------------------


 stress matrix after NEB project (eV)
      0.00000      0.00000      0.00000
      0.00000      0.00000      0.00000
      0.00000      0.00000      0.00000
  FORCES: max atom, RMS     0.102589    0.059784
  FORCE total and by dimension    0.280413    0.101416
  Stress total and by dimension    0.000000    0.000000
     LOOP+:  cpu time    100.9216: real time    101.2352
    4ORBIT:  cpu time      0.0000: real time      0.0000

 total amount of memory used by VASP MPI-rank0   167364. kBytes
=======================================================================

   base      :      30000. kBytes
   nonl-proj :       9539. kBytes
   fftplans  :      41190. kBytes
   grid      :      82425. kBytes
   one-center:          1. kBytes
   wavefun   :       4209. kBytes

  
  
 General timing and accounting informations for this job:
 ========================================================
  
                  Total CPU time used (sec):      132.369
                            User time (sec):      128.691
                          System time (sec):        3.678
                         Elapsed time (sec):      141.826
  
                   Maximum memory used (kb):      373544.
                   Average memory used (kb):          N/A
  
                          Minor page faults:       182228
                          Major page faults:          747
                 Voluntary context switches:         7288
