 vasp.6.4.1 05Apr23 (build Jun  6 2023 14:46:38) gamma-only                      
 executed on        HPECrayEX_GCC date 2024.08.22  12:03:37
 running  512 mpi-ranks, with    1 threads/rank, on    4 nodes
 distrk:  each k-point on  512 cores,    1 groups
 distr:  one band on NCORE=   2 cores,  256 groups


--------------------------------------------------------------------------------------------------------


 INCAR:
   ALGO = Conjugate
   NCORE = 2
   PREC = Accurate
   EDIFF = 1E-7
   ENCUT = 1000
   ISMEAR = 0
   SIGMA = 0.01
   ISIF = 0
   SYMPREC = 1E-7
   IVDW = 11
   LWAVE = .FALSE.
   LCHARG = .FALSE.
   LWAVE = .FALSE.
   LCHARG = .FALSE.

 POTCAR:    PAW_PBE C_h 06Feb2004                 
 POTCAR:    PAW_PBE H_h 06Feb2004                 
 POTCAR:    PAW_PBE N_h 06Feb2004                 
 POTCAR:    PAW_PBE C_h 06Feb2004                 
   VRHFIN =C: s2p2                                                                                  
   LEXCH  = PE                                                                                      
   EATOM  =   147.1560 eV,   10.8157 Ry                                                             
                                                                                                    
   TITEL  = PAW_PBE C_h 06Feb2004                                                                   
   LULTRA =        F    use ultrasoft PP ?                                                          
   IUNSCR =        1    unscreen: 0-lin 1-nonlin 2-no                                               
   RPACOR =    0.800    partial core radius                                                         
   POMASS =   12.011; ZVAL   =    4.000    mass and valenz                                          
   RCORE  =    1.100    outmost cutoff radius                                                       
   RWIGS  =    1.630; RWIGS  =    0.863    wigner-seitz radius (au A)                               
   ENMAX  =  700.000; ENMIN  =  500.000 eV                                                          
   ICORE  =        2    local potential                                                             
   LCOR   =        T    correct aug charges                                                         
   LPAW   =        T    paw PP                                                                      
   EAUG   =  946.768                                                                                
   DEXC   =    0.000                                                                                
   RMAX   =    1.128    core radius for proj-oper                                                   
   RAUG   =    1.300    factor for augmentation sphere                                              
   RDEP   =    1.162    radius for radial grids                                                     
   RDEPT  =    1.088    core radius for aug-charge                                                  
                                                                                                    
   Atomic configuration                                                                             
    4 entries                                                                                       
     n  l   j            E        occ.                                                              
     1  0  0.50      -273.3789   2.0000                                                             
     2  0  0.50       -13.7508   2.0000                                                             
     2  1  0.50        -5.2854   2.0000                                                             
     3  2  1.50        -5.4423   0.0000                                                             
   Description                                                                                      
     l       E           TYP  RCUT    TYP  RCUT                                                     
     0    -13.7508458     23  1.100                                                                 
     0     -8.2022199     23  1.100                                                                 
     1     -5.2854383     23  1.100                                                                 
     1      1.1560700     23  1.100                                                                 
     2     -5.4423304      7  1.100                                                                 
  local pseudopotential read in
  partial core-charges read in
  partial kinetic energy density read in
  atomic valenz-charges read in
  non local Contribution for L=           0  read in
    real space projection operators read in
  non local Contribution for L=           0  read in
    real space projection operators read in
  non local Contribution for L=           1  read in
    real space projection operators read in
  non local Contribution for L=           1  read in
    real space projection operators read in
    PAW grid and wavefunctions read in

   number of l-projection  operators is LMAX  =           4
   number of lm-projection operators is LMMAX =           8

 POTCAR:    PAW_PBE H_h 06Feb2004                 
   VRHFIN =H: ultrasoft test                                                                        
   LEXCH  = PE                                                                                      
   EATOM  =    12.4884 eV,    0.9179 Ry                                                             
                                                                                                    
   TITEL  = PAW_PBE H_h 06Feb2004                                                                   
   LULTRA =        F    use ultrasoft PP ?                                                          
   IUNSCR =        0    unscreen: 0-lin 1-nonlin 2-no                                               
   RPACOR =    0.000    partial core radius                                                         
   POMASS =    1.000; ZVAL   =    1.000    mass and valenz                                          
   RCORE  =    0.800    outmost cutoff radius                                                       
   RWIGS  =    0.700; RWIGS  =    0.370    wigner-seitz radius (au A)                               
   ENMAX  =  700.000; ENMIN  =  350.000 eV                                                          
   RCLOC  =    0.701    cutoff for local pot                                                        
   LCOR   =        T    correct aug charges                                                         
   LPAW   =        T    paw PP                                                                      
   EAUG   = 1000.000                                                                                
   RMAX   =    0.819    core radius for proj-oper                                                   
   RAUG   =    1.000    factor for augmentation sphere                                              
   RDEP   =    0.817    radius for radial grids                                                     
   RDEPT  =    0.817    core radius for aug-charge                                                  
                                                                                                    
   Atomic configuration                                                                             
    2 entries                                                                                       
     n  l   j            E        occ.                                                              
     1  0  0.50        -6.4927   1.0000                                                             
     2  1  0.50        -3.4015   0.0000                                                             
   Description                                                                                      
     l       E           TYP  RCUT    TYP  RCUT                                                     
     0     -6.4927493     23  0.800                                                                 
     0      6.8029130     23  0.800                                                                 
     1     -6.8029130     23  0.800                                                                 
  local pseudopotential read in
  atomic valenz-charges read in
  non local Contribution for L=           0  read in
    real space projection operators read in
  non local Contribution for L=           0  read in
    real space projection operators read in
  non local Contribution for L=           1  read in
    real space projection operators read in
    PAW grid and wavefunctions read in

   number of l-projection  operators is LMAX  =           3
   number of lm-projection operators is LMMAX =           5

 POTCAR:    PAW_PBE N_h 06Feb2004                 
   VRHFIN =N: s2p3                                                                                  
   LEXCH  = PE                                                                                      
   EATOM  =   264.5486 eV,   19.4438 Ry                                                             
                                                                                                    
   TITEL  = PAW_PBE N_h 06Feb2004                                                                   
   LULTRA =        F    use ultrasoft PP ?                                                          
   IUNSCR =        1    unscreen: 0-lin 1-nonlin 2-no                                               
   RPACOR =    0.800    partial core radius                                                         
   POMASS =   14.001; ZVAL   =    5.000    mass and valenz                                          
   RCORE  =    1.100    outmost cutoff radius                                                       
   RWIGS  =    1.480; RWIGS  =    0.783    wigner-seitz radius (au A)                               
   ENMAX  =  700.000; ENMIN  =  500.000 eV                                                          
   ICORE  =        2    local potential                                                             
   LCOR   =        T    correct aug charges                                                         
   LPAW   =        T    paw PP                                                                      
   EAUG   =  904.640                                                                                
   DEXC   =    0.000                                                                                
   RMAX   =    1.127    core radius for proj-oper                                                   
   RAUG   =    1.300    factor for augmentation sphere                                              
   RDEP   =    1.115    radius for radial grids                                                     
   RDEPT  =    1.106    core radius for aug-charge                                                  
                                                                                                    
   Atomic configuration                                                                             
    4 entries                                                                                       
     n  l   j            E        occ.                                                              
     1  0  0.50      -384.7179   2.0000                                                             
     2  0  0.50       -18.5828   2.0000                                                             
     2  1  0.50        -7.0898   3.0000                                                             
     3  2  1.50        -6.8029   0.0000                                                             
   Description                                                                                      
     l       E           TYP  RCUT    TYP  RCUT                                                     
     0    -18.5828117     23  1.100                                                                 
     0    -15.0750597     23  1.100                                                                 
     1     -7.0897851     23  1.100                                                                 
     1     -1.9663412     23  1.100                                                                 
     2     -6.8029130      7  1.100                                                                 
  local pseudopotential read in
  partial core-charges read in
  partial kinetic energy density read in
  kinetic energy density of atom read in
  atomic valenz-charges read in
  non local Contribution for L=           0  read in
    real space projection operators read in
  non local Contribution for L=           0  read in
    real space projection operators read in
  non local Contribution for L=           1  read in
    real space projection operators read in
  non local Contribution for L=           1  read in
    real space projection operators read in
    PAW grid and wavefunctions read in

   number of l-projection  operators is LMAX  =           4
   number of lm-projection operators is LMMAX =           8

 -----------------------------------------------------------------------------
|                                                                             |
|               ----> ADVICE to this user running VASP <----                  |
|                                                                             |
|     You have a (more or less) 'large supercell' and for larger cells it     |
|     might be more efficient to use real-space projection operators.         |
|     Therefore, try LREAL= Auto in the INCAR file.                           |
|     Mind: For very accurate calculation, you might also keep the            |
|     reciprocal projection scheme (i.e. LREAL=.FALSE.).                      |
|                                                                             |
 -----------------------------------------------------------------------------

  PAW_PBE C_h 06Feb2004                 :
 energy of atom  1       EATOM= -147.1560
 kinetic energy error for atom=    0.0031 (will be added to EATOM!!)
  PAW_PBE H_h 06Feb2004                 :
 energy of atom  2       EATOM=  -12.4884
 kinetic energy error for atom=    0.0006 (will be added to EATOM!!)
  PAW_PBE N_h 06Feb2004                 :
 energy of atom  3       EATOM= -264.5486
 kinetic energy error for atom=    0.0081 (will be added to EATOM!!)


 POSCAR:  C  H  N
  positions in cartesian coordinates
  No initial velocities read in
 exchange correlation table for  LEXCH =        8
   RHO(1)=    0.500       N(1)  =     2000
   RHO(2)=  100.500       N(2)  =     4000

 VTST: version 4.1, (05/19/21)

 CHAIN: initializing optimizer
 
 OPT: Using VASP Dynamics algorithm
 CHAIN: Read ICHAIN            0

 POSCAR:  C  H  N
  positions in cartesian coordinates
  No initial velocities read in



--------------------------------------------------------------------------------------------------------


 ion  position               nearest neighbor table
   1  0.528  0.462  0.452-   7 1.10   8 1.10  20 1.48  19 1.48
   2  0.450  0.435  0.500-   9 1.10  10 1.10  19 1.48  21 1.48
   3  0.528  0.462  0.548-  11 1.10  12 1.10  22 1.48  19 1.48
   4  0.450  0.517  0.452-  14 1.10  13 1.10  20 1.48  21 1.48
   5  0.528  0.545  0.500-  15 1.10  16 1.10  22 1.48  20 1.48
   6  0.450  0.517  0.548-  18 1.10  17 1.10  22 1.48  21 1.48
   7  0.572  0.462  0.452-   1 1.10
   8  0.513  0.441  0.416-   1 1.10
   9  0.435  0.414  0.464-   2 1.10
  10  0.435  0.414  0.536-   2 1.10
  11  0.572  0.462  0.548-   3 1.10
  12  0.513  0.441  0.584-   3 1.10
  13  0.435  0.497  0.416-   4 1.10
  14  0.435  0.559  0.452-   4 1.10
  15  0.572  0.545  0.500-   5 1.10
  16  0.513  0.586  0.500-   5 1.10
  17  0.435  0.497  0.584-   6 1.10
  18  0.435  0.559  0.548-   6 1.10
  19  0.509  0.433  0.500-   2 1.48   1 1.48   3 1.48
  20  0.509  0.518  0.451-   4 1.48   1 1.48   5 1.48
  21  0.428  0.490  0.500-   2 1.48   4 1.48   6 1.48
  22  0.509  0.518  0.549-   6 1.48   3 1.48   5 1.48

  LATTYP: Found a simple cubic cell.
 ALAT       =    25.0000000000
  
  Lattice vectors:
  
 A1 = (  25.0000000000,   0.0000000000,   0.0000000000)
 A2 = (   0.0000000000,  25.0000000000,   0.0000000000)
 A3 = (   0.0000000000,   0.0000000000,  25.0000000000)


Analysis of symmetry for initial positions (statically):
=====================================================================
 Subroutine PRICEL returns:
 Original cell was already a primitive cell.
 

 Routine SETGRP: Setting up the symmetry group for a 
 simple cubic supercell.


 Subroutine GETGRP returns: Found  1 space group operations
 (whereof  1 operations were pure point group operations)
 out of a pool of 48 trial point group operations.


The static configuration has the point symmetry C_1 .


Analysis of symmetry for dynamics (positions and initial velocities):
=====================================================================
 Subroutine PRICEL returns:
 Original cell was already a primitive cell.
 

 Routine SETGRP: Setting up the symmetry group for a 
 simple cubic supercell.


 Subroutine GETGRP returns: Found  1 space group operations
 (whereof  1 operations were pure point group operations)
 out of a pool of 48 trial point group operations.


The dynamic configuration has the point symmetry C_1 .


 Subroutine INISYM returns: Found  1 space group operations
 (whereof  1 operations are pure point group operations),
 and found     1 'primitive' translations


----------------------------------------------------------------------------------------

                                     Primitive cell                                     

  volume of cell :   15625.0000

  direct lattice vectors                    reciprocal lattice vectors
    25.000000000  0.000000000  0.000000000     0.040000000  0.000000000  0.000000000
     0.000000000 25.000000000  0.000000000     0.000000000  0.040000000  0.000000000
     0.000000000  0.000000000 25.000000000     0.000000000  0.000000000  0.040000000

  length of vectors
    25.000000000 25.000000000 25.000000000     0.040000000  0.040000000  0.040000000

  position of ions in fractional coordinates (direct lattice)
     0.527544000  0.462106000  0.452254000
     0.449584000  0.434546000  0.499998000
     0.527544000  0.462106000  0.547742000
     0.449588000  0.517234000  0.452250000
     0.527544000  0.544802000  0.499998000
     0.449588000  0.517234000  0.547750000
     0.571600000  0.461930000  0.451950000
     0.513180000  0.441278000  0.416178000
     0.434724000  0.413542000  0.464230000
     0.434724000  0.413542000  0.535766000
     0.571600000  0.461930000  0.548046000
     0.513180000  0.441278000  0.583818000
     0.434724000  0.496754000  0.416178000
     0.434724000  0.558710000  0.451950000
     0.571600000  0.545154000  0.499998000
     0.513180000  0.586458000  0.499998000
     0.434724000  0.496754000  0.583822000
     0.434724000  0.558710000  0.548046000
     0.508616000  0.432942000  0.499998000
     0.508620000  0.518034000  0.450866000
     0.428400000  0.489674000  0.499998000
     0.508620000  0.518034000  0.549126000

  ion indices of the primitive-cell ions
   primitive index   ion index
                 1           1
                 2           2
                 3           3
                 4           4
                 5           5
                 6           6
                 7           7
                 8           8
                 9           9
                10          10
                11          11
                12          12
                13          13
                14          14
                15          15
                16          16
                17          17
                18          18
                19          19
                20          20
                21          21
                22          22

----------------------------------------------------------------------------------------



 KPOINTS: auto                                    

Automatic generation of k-mesh.
 Grid dimensions read from file:
 generate k-points for:    1    1    1

 Generating k-lattice:

  Cartesian coordinates                     Fractional coordinates (reciprocal lattice)
     0.040000000  0.000000000  0.000000000     1.000000000  0.000000000  0.000000000
     0.000000000  0.040000000  0.000000000     0.000000000  1.000000000  0.000000000
     0.000000000  0.000000000  0.040000000     0.000000000  0.000000000  1.000000000

  Length of vectors
     0.040000000  0.040000000  0.040000000

  Shift w.r.t. Gamma in fractional coordinates (k-lattice)
     0.000000000  0.000000000  0.000000000

 
 Subroutine IBZKPT returns following result:
 ===========================================
 
 Found      1 irreducible k-points:
 
 Following reciprocal coordinates:
            Coordinates               Weight
  0.000000  0.000000  0.000000      1.000000
 
 Following cartesian coordinates:
            Coordinates               Weight
  0.000000  0.000000  0.000000      1.000000
 


--------------------------------------------------------------------------------------------------------




 Dimension of arrays:
   k-points           NKPTS =      1   k-points in BZ     NKDIM =      1   number of bands    NBANDS=    256
   number of dos      NEDOS =    301   number of ions     NIONS =     22
   non local maximal  LDIM  =      4   non local SUM 2l+1 LMDIM =      8
   total plane-waves  NPLWV = ******
   max r-space proj   IRMAX =      1   max aug-charges    IRDMAX=   9146
   dimension x,y,z NGX =   270 NGY =  270 NGZ =  270
   dimension x,y,z NGXF=   540 NGYF=  540 NGZF=  540
   support grid    NGXF=   540 NGYF=  540 NGZF=  540
   ions per type =               6  12   4
   NGX,Y,Z   is equivalent  to a cutoff of  17.95, 17.95, 17.95 a.u.
   NGXF,Y,Z  is equivalent  to a cutoff of  35.91, 35.91, 35.91 a.u.

 SYSTEM =  unknown system                          
 POSCAR =   C  H  N                                

 Startparameter for this run:
   NWRITE =      2    write-flag & timer
   PREC   = accura    normal or accurate (medium, high low for compatibility)
   ISTART =      0    job   : 0-new  1-cont  2-samecut
   ICHARG =      2    charge: 1-file 2-atom 10-const
   ISPIN  =      1    spin polarized calculation?
   LNONCOLLINEAR =      F non collinear calculations
   LSORBIT =      F    spin-orbit coupling
   INIWAV =      1    electr: 0-lowe 1-rand  2-diag
   LASPH  =      F    aspherical Exc in radial PAW
 Electronic Relaxation 1
   ENCUT  = 1000.0 eV  73.50 Ry    8.57 a.u.  64.46 64.46 64.46*2*pi/ulx,y,z
   ENINI  = 1000.0     initial cutoff
   ENAUG  = 1000.0 eV  augmentation charge cutoff
   NELM   =     60;   NELMIN=  2; NELMDL= -5     # of ELM steps 
   EDIFF  = 0.1E-06   stopping-criterion for ELM
   LREAL  =      F    real-space projection
   NLSPLINE    = F    spline interpolate recip. space projectors
   LCOMPAT=      F    compatible to vasp.4.4
   GGA_COMPAT  = T    GGA compatible to vasp.4.4-vasp.4.6
   LMAXPAW     = -100 max onsite density
   LMAXMIX     =    2 max onsite mixed and CHGCAR
   VOSKOWN=      0    Vosko Wilk Nusair interpolation
   ROPT   =    0.00000   0.00000   0.00000
 Ionic relaxation
   EDIFFG = 0.1E-05   stopping-criterion for IOM
   NSW    =      0    number of steps for IOM
   NBLOCK =      1;   KBLOCK =      1    inner block; outer block 
   IBRION =     -1    ionic relax: 0-MD 1-quasi-New 2-CG
   NFREE  =      0    steps in history (QN), initial steepest desc. (CG)
   ISIF   =      0    stress and relaxation
   IWAVPR =     10    prediction:  0-non 1-charg 2-wave 3-comb
   ISYM   =      2    0-nonsym 1-usesym 2-fastsym
   LCORR  =      T    Harris-Foulkes like correction to forces

   POTIM  = 0.5000    time-step for ionic-motion
   TEIN   =    0.0    initial temperature
   TEBEG  =    0.0;   TEEND  =   0.0 temperature during run
   SMASS  =  -3.00    Nose mass-parameter (am)
   estimated Nose-frequenzy (Omega)   =  0.10E-29 period in steps = 0.13E+47 mass=  -0.143E-25a.u.
   SCALEE = 1.0000    scale energy and forces
   NPACO  =    256;   APACO  = 10.0  distance and # of slots for P.C.
   PSTRESS=    0.0 pullay stress

  Mass of Ions in am
   POMASS =  12.01  1.00 14.00
  Ionic Valenz
   ZVAL   =   4.00  1.00  5.00
  Atomic Wigner-Seitz radii
   RWIGS  =  -1.00 -1.00 -1.00
  virtual crystal weights 
   VCA    =   1.00  1.00  1.00
   NELECT =      56.0000    total number of electrons
   NUPDOWN=      -1.0000    fix difference up-down

 DOS related values:
   EMIN   =  10.00;   EMAX   =-10.00  energy-range for DOS
   EFERMI =   0.00;   METHOD = LEGACY      
   ISMEAR =     0;   SIGMA  =   0.01  broadening in eV -4-tet -1-fermi 0-gaus

 Electronic relaxation 2 (details)
   IALGO  =     58    algorithm
   LDIAG  =      T    sub-space diagonalisation (order eigenvalues)
   LSUBROT=      F    optimize rotation matrix (better conditioning)
   TURBO    =      0    0=normal 1=particle mesh
   IRESTART =      0    0=no restart 2=restart with 2 vectors
   NREBOOT  =      0    no. of reboots
   NMIN     =      0    reboot dimension
   EREF     =   0.00    reference energy to select bands
   IMIX   =      4    mixing-type and parameters
     AMIX     =   0.40;   BMIX     =  1.00
     AMIX_MAG =   1.60;   BMIX_MAG =  1.00
     AMIN     =   0.10
     WC   =   100.;   INIMIX=   1;  MIXPRE=   1;  MAXMIX= -45

 Intra band minimization:
   WEIMIN = 0.0000     energy-eigenvalue tresh-hold
   EBREAK =  0.98E-10  absolut break condition
   DEPER  =   0.30     relativ break condition  

   TIME   =   0.40     timestep for ELM

  volume/ion in A,a.u.               =     710.23      4792.85
  Fermi-wavevector in a.u.,A,eV,Ry     =   0.250533  0.473438  0.853991  0.062767
  Thomas-Fermi vector in A             =   1.067299

 Write flags
   LWAVE        =      F    write WAVECAR
   LDOWNSAMPLE  =      F    k-point downsampling of WAVECAR
   LCHARG       =      F    write CHGCAR
   LVTOT        =      F    write LOCPOT, total local potential
   LVHAR        =      F    write LOCPOT, Hartree potential only
   LELF         =      F    write electronic localiz. function (ELF)
   LORBIT       =      0    0 simple, 1 ext, 2 COOP (PROOUT), +10 PAW based schemes


 Dipole corrections
   LMONO  =      F    monopole corrections only (constant potential shift)
   LDIPOL =      F    correct potential (dipole corrections)
   IDIPOL =      0    1-x, 2-y, 3-z, 4-all directions 
   EPSILON=  1.0000000 bulk dielectric constant

 Exchange correlation treatment:
   GGA     =    --    GGA type
   LEXCH   =     8    internal setting for exchange type
   LIBXC   =     F    Libxc                    
   VOSKOWN =     0    Vosko Wilk Nusair interpolation
   LHFCALC =     F    Hartree Fock is set to
   LHFONE  =     F    Hartree Fock one center treatment
   AEXX    =    0.0000 exact exchange contribution

 Linear response parameters
   LEPSILON=     F    determine dielectric tensor
   LRPA    =     F    only Hartree local field effects (RPA)
   LNABLA  =     F    use nabla operator in PAW spheres
   LVEL    =     F    velocity operator in full k-point grid
   CSHIFT  =0.1000    complex shift for real part using Kramers Kronig
   OMEGAMAX=  -1.0    maximum frequency
   DEG_THRESHOLD= 0.2000000E-02 threshold for treating states as degnerate
   RTIME   =   -0.100 relaxation time in fs
  (WPLASMAI=    0.000 imaginary part of plasma frequency in eV, 0.658/RTIME)
   DFIELD  = 0.0000000 0.0000000 0.0000000 field for delta impulse in time

  Optional k-point grid parameters
   LKPOINTS_OPT  =     F    use optional k-point grid
   KPOINTS_OPT_MODE=     1    mode for optional k-point grid

 Orbital magnetization related:
   ORBITALMAG=     F  switch on orbital magnetization
   LCHIMAG   =     F  perturbation theory with respect to B field
   DQ        =  0.001000  dq finite difference perturbation B field
   LLRAUG    =     F  two centre corrections for induced B field
   LBONE     =     F  B-component reconstruction in AE one-centre
   LVGVCALC  =     T  calculate vGv susceptibility
   LVGVAPPL  =     F  apply vGv susceptibility instead of pGv for G=0

 Random number generation:
   RANDOM_GENERATOR = DEFAULT
   PCG_SEED         = not used


--------------------------------------------------------------------------------------------------------


 Static calculation
 charge density and potential will be updated during run
 non-spin polarized calculation
 Conjugate gradient for all bands (Freysoldt, et al. PRB 79, 241103 (2009))
 preconditioned conjugated gradient                                        
 perform sub-space diagonalisation
    before iterative eigenvector-optimisation
 modified Broyden-mixing scheme, WC =      100.0
 initial mixing is a Kerker type mixing with AMIX =  0.4000 and BMIX =      1.0000
 Hartree-type preconditioning will be used
 using additional bands          228
 reciprocal scheme for non local part
 use partial core corrections
 no Harris-corrections to forces 
 use gradient corrections 
 use of overlap-Matrix (Vanderbilt PP)
 Gauss-broadening in eV      SIGMA  =   0.01


--------------------------------------------------------------------------------------------------------


  energy-cutoff  :     1000.00
  volume of cell :    15625.00
      direct lattice vectors                 reciprocal lattice vectors
    25.000000000  0.000000000  0.000000000     0.040000000  0.000000000  0.000000000
     0.000000000 25.000000000  0.000000000     0.000000000  0.040000000  0.000000000
     0.000000000  0.000000000 25.000000000     0.000000000  0.000000000  0.040000000

  length of vectors
    25.000000000 25.000000000 25.000000000     0.040000000  0.040000000  0.040000000



 k-points in units of 2pi/SCALE and weight: auto                                    
   0.00000000  0.00000000  0.00000000       1.000

 k-points in reciprocal lattice and weights: auto                                    
   0.00000000  0.00000000  0.00000000       1.000

 position of ions in fractional coordinates (direct lattice) 
   0.52754400  0.46210600  0.45225400
   0.44958400  0.43454600  0.49999800
   0.52754400  0.46210600  0.54774200
   0.44958800  0.51723400  0.45225000
   0.52754400  0.54480200  0.49999800
   0.44958800  0.51723400  0.54775000
   0.57160000  0.46193000  0.45195000
   0.51318000  0.44127800  0.41617800
   0.43472400  0.41354200  0.46423000
   0.43472400  0.41354200  0.53576600
   0.57160000  0.46193000  0.54804600
   0.51318000  0.44127800  0.58381800
   0.43472400  0.49675400  0.41617800
   0.43472400  0.55871000  0.45195000
   0.57160000  0.54515400  0.49999800
   0.51318000  0.58645800  0.49999800
   0.43472400  0.49675400  0.58382200
   0.43472400  0.55871000  0.54804600
   0.50861600  0.43294200  0.49999800
   0.50862000  0.51803400  0.45086600
   0.42840000  0.48967400  0.49999800
   0.50862000  0.51803400  0.54912600

 position of ions in cartesian coordinates  (Angst):
  13.18860000 11.55265000 11.30635000
  11.23960000 10.86365000 12.49995000
  13.18860000 11.55265000 13.69355000
  11.23970000 12.93085000 11.30625000
  13.18860000 13.62005000 12.49995000
  11.23970000 12.93085000 13.69375000
  14.29000000 11.54825000 11.29875000
  12.82950000 11.03195000 10.40445000
  10.86810000 10.33855000 11.60575000
  10.86810000 10.33855000 13.39415000
  14.29000000 11.54825000 13.70115000
  12.82950000 11.03195000 14.59545000
  10.86810000 12.41885000 10.40445000
  10.86810000 13.96775000 11.29875000
  14.29000000 13.62885000 12.49995000
  12.82950000 14.66145000 12.49995000
  10.86810000 12.41885000 14.59555000
  10.86810000 13.96775000 13.70115000
  12.71540000 10.82355000 12.49995000
  12.71550000 12.95085000 11.27165000
  10.71000000 12.24185000 12.49995000
  12.71550000 12.95085000 13.72815000



--------------------------------------------------------------------------------------------------------


 use parallel FFT for orbitals z direction half grid
 k-point   1 :   0.0000 0.0000 0.0000  plane waves:  561155

 maximum and minimum number of plane-waves per node :    280586   280569

 maximum number of plane-waves:    561155
 maximum index in each direction: 
   IXMAX=   64   IYMAX=   64   IZMAX=   64
   IXMIN=  -64   IYMIN=  -64   IZMIN=    0


 parallel 3D FFT for wavefunctions:
    minimum data exchange during FFTs selected (reduces bandwidth)
 parallel 3D FFT for charge:
    minimum data exchange during FFTs selected (reduces bandwidth)


 total amount of memory used by VASP MPI-rank0   849951. kBytes
=======================================================================

   base      :      30000. kBytes
   nonl-proj :     152633. kBytes
   fftplans  :     222158. kBytes
   grid      :     431671. kBytes
   one-center:         16. kBytes
   wavefun   :      13473. kBytes

     INWAV:  cpu time      0.0002: real time      0.0003
 Broyden mixing: mesh for mixing (old mesh)
   NGX =129   NGY =129   NGZ =129
  (NGX  =540   NGY  =540   NGZ  =540)
  gives a total of ****** points

 initial charge density was supplied:
 charge density of overlapping atoms calculated
 number of electron      56.0000000 magnetization 
 keeping initial charge density in first step


--------------------------------------------------------------------------------------------------------


 Maximum index for augmentation-charges            0 (set IRDMAX)


--------------------------------------------------------------------------------------------------------


 First call to EWALD:  gamma=   0.071
 Maximum number of real-space cells 3x 3x 3
 Maximum number of reciprocal cells 3x 3x 3

    FEWALD:  cpu time      0.0037: real time      0.0037


--------------------------------------- Ionic step        1  -------------------------------------------




--------------------------------------- Iteration      1(   1)  ---------------------------------------


    POTLOK:  cpu time      1.4645: real time      1.4657
    SETDIJ:  cpu time      0.0089: real time      0.0092
    TRIAL :  cpu time      8.9607: real time      8.9678
    CORREC:  cpu time      0.0029: real time      0.0029
    --------------------------------------------
      LOOP:  cpu time     10.4528: real time     10.4614

 eigenvalue-minimisations  :   512
 total energy-change (2. order) : 0.6124116E+03  (-0.2128037E+04)
 number of electron      56.0000000 magnetization 
 augmentation part       56.0000000 magnetization 

 Free energy of the ion-electron system (eV)
  ---------------------------------------------------
  alpha Z        PSCENC =         0.61187337
  Ewald energy   TEWEN  =      6596.92229518
  -Hartree energ DENC   =     -8035.09987111
  -exchange      EXHF   =         0.00000000
  -V(xc)+E(xc)   XCENC  =       140.46201058
  PAW double counting   =      1525.30504351    -1488.52757300
  entropy T*S    EENTRO =        -0.00017850
  eigenvalues    EBANDS =      -218.19474076
  atomic energy  EATOM  =      2090.93278114
  ---------------------------------------------------
  free energy    TOTEN  =       612.41164040 eV

  energy without entropy =      612.41181890  energy(sigma->0) =      612.41172965


--------------------------------------------------------------------------------------------------------




--------------------------------------- Iteration      1(   2)  ---------------------------------------


    TRIAL :  cpu time     20.5516: real time     20.5637
    CORREC:  cpu time      0.0002: real time      0.0002
    --------------------------------------------
      LOOP:  cpu time     20.5732: real time     20.5987

 eigenvalue-minimisations  :  1024
 total energy-change (2. order) :-0.7205625E+03  (-0.7205366E+03)
 number of electron      56.0000000 magnetization 
 augmentation part       56.0000000 magnetization 

 Free energy of the ion-electron system (eV)
  ---------------------------------------------------
  alpha Z        PSCENC =         0.61187337
  Ewald energy   TEWEN  =      6596.92229518
  -Hartree energ DENC   =     -8035.09987111
  -exchange      EXHF   =         0.00000000
  -V(xc)+E(xc)   XCENC  =       140.46201058
  PAW double counting   =      1525.30504351    -1488.52757300
  entropy T*S    EENTRO =        -0.00000000
  eigenvalues    EBANDS =      -938.75740578
  atomic energy  EATOM  =      2090.93278114
  ---------------------------------------------------
  free energy    TOTEN  =      -108.15084612 eV

  energy without entropy =     -108.15084612  energy(sigma->0) =     -108.15084612


--------------------------------------------------------------------------------------------------------




--------------------------------------- Iteration      1(   3)  ---------------------------------------


    TRIAL :  cpu time      9.0820: real time      9.0864
    CORREC:  cpu time      0.0002: real time      0.0002
    --------------------------------------------
      LOOP:  cpu time      9.0976: real time      9.1191

 eigenvalue-minimisations  :   512
 total energy-change (2. order) :-0.3130255E+02  (-0.3130255E+02)
 number of electron      56.0000000 magnetization 
 augmentation part       56.0000000 magnetization 

 Free energy of the ion-electron system (eV)
  ---------------------------------------------------
  alpha Z        PSCENC =         0.61187337
  Ewald energy   TEWEN  =      6596.92229518
  -Hartree energ DENC   =     -8035.09987111
  -exchange      EXHF   =         0.00000000
  -V(xc)+E(xc)   XCENC  =       140.46201058
  PAW double counting   =      1525.30504351    -1488.52757300
  entropy T*S    EENTRO =        -0.00000000
  eigenvalues    EBANDS =      -970.05995824
  atomic energy  EATOM  =      2090.93278114
  ---------------------------------------------------
  free energy    TOTEN  =      -139.45339858 eV

  energy without entropy =     -139.45339858  energy(sigma->0) =     -139.45339858


--------------------------------------------------------------------------------------------------------




--------------------------------------- Iteration      1(   4)  ---------------------------------------


    TRIAL :  cpu time     20.1866: real time     20.1959
    CORREC:  cpu time      0.0002: real time      0.0002
    --------------------------------------------
      LOOP:  cpu time     20.2232: real time     20.2327

 eigenvalue-minimisations  :  1024
 total energy-change (2. order) :-0.6128359E+00  (-0.6128359E+00)
 number of electron      56.0000000 magnetization 
 augmentation part       56.0000000 magnetization 

 Free energy of the ion-electron system (eV)
  ---------------------------------------------------
  alpha Z        PSCENC =         0.61187337
  Ewald energy   TEWEN  =      6596.92229518
  -Hartree energ DENC   =     -8035.09987111
  -exchange      EXHF   =         0.00000000
  -V(xc)+E(xc)   XCENC  =       140.46201058
  PAW double counting   =      1525.30504351    -1488.52757300
  entropy T*S    EENTRO =        -0.00000000
  eigenvalues    EBANDS =      -970.67279414
  atomic energy  EATOM  =      2090.93278114
  ---------------------------------------------------
  free energy    TOTEN  =      -140.06623448 eV

  energy without entropy =     -140.06623448  energy(sigma->0) =     -140.06623448


--------------------------------------------------------------------------------------------------------




--------------------------------------- Iteration      1(   5)  ---------------------------------------


    TRIAL :  cpu time      9.0628: real time      9.0672
    CORREC:  cpu time      0.0002: real time      0.0002
    CHARGE:  cpu time      2.0627: real time      2.0648
    --------------------------------------------
      LOOP:  cpu time     11.1424: real time     11.1651

 eigenvalue-minimisations  :   512
 total energy-change (2. order) :-0.7556198E-04  (-0.7554838E-04)
 number of electron      56.0000000 magnetization 
 augmentation part       -0.0587370 magnetization 

 Free energy of the ion-electron system (eV)
  ---------------------------------------------------
  alpha Z        PSCENC =         0.61187337
  Ewald energy   TEWEN  =      6596.92229518
  -Hartree energ DENC   =     -8035.09987111
  -exchange      EXHF   =         0.00000000
  -V(xc)+E(xc)   XCENC  =       140.46201058
  PAW double counting   =      1525.30504351    -1488.52757300
  entropy T*S    EENTRO =        -0.00000000
  eigenvalues    EBANDS =      -970.67286970
  atomic energy  EATOM  =      2090.93278114
  ---------------------------------------------------
  free energy    TOTEN  =      -140.06631004 eV

  energy without entropy =     -140.06631004  energy(sigma->0) =     -140.06631004


--------------------------------------------------------------------------------------------------------




--------------------------------------- Iteration      1(   6)  ---------------------------------------


    POTLOK:  cpu time      0.8930: real time      0.8940
    SETDIJ:  cpu time      0.0021: real time      0.0021
    TRIAL :  cpu time      4.5025: real time      4.5066
    CORREC:  cpu time      3.9483: real time      3.9505
    CHARGE:  cpu time      2.0216: real time      2.0225
    --------------------------------------------
      LOOP:  cpu time     11.3813: real time     11.4060

 eigenvalue-minimisations  :     0
 total energy-change (2. order) : 0.1830508E+02  (-0.6452776E+01)
 number of electron      56.0000000 magnetization 
 augmentation part       -0.0820804 magnetization 

 Free energy of the ion-electron system (eV)
  ---------------------------------------------------
  alpha Z        PSCENC =         0.61187337
  Ewald energy   TEWEN  =      6596.92229518
  -Hartree energ DENC   =     -8548.60359217
  -exchange      EXHF   =         0.00000000
  -V(xc)+E(xc)   XCENC  =       158.40299209
  PAW double counting   =     15326.24481098   -15291.42011515
  entropy T*S    EENTRO =        -0.00000000
  eigenvalues    EBANDS =      -454.85227767
  atomic energy  EATOM  =      2090.93278114
  ---------------------------------------------------
  free energy    TOTEN  =      -121.76123223 eV

  energy without entropy =     -121.76123223  energy(sigma->0) =     -121.76123223


--------------------------------------------------------------------------------------------------------




--------------------------------------- Iteration      1(   7)  ---------------------------------------


    POTLOK:  cpu time      0.9055: real time      0.9059
    SETDIJ:  cpu time      0.0026: real time      0.0026
    TRIAL :  cpu time      4.3426: real time      4.3456
    CORREC:  cpu time      3.8889: real time      3.8909
    CHARGE:  cpu time      1.9806: real time      1.9814
    --------------------------------------------
      LOOP:  cpu time     11.1509: real time     11.1573

 eigenvalue-minimisations  :     0
 total energy-change (2. order) :-0.6463531E+01  (-0.1185428E+01)
 number of electron      56.0000000 magnetization 
 augmentation part       -0.1036596 magnetization 

 Free energy of the ion-electron system (eV)
  ---------------------------------------------------
  alpha Z        PSCENC =         0.61187337
  Ewald energy   TEWEN  =      6596.92229518
  -Hartree energ DENC   =     -8336.60524241
  -exchange      EXHF   =         0.00000000
  -V(xc)+E(xc)   XCENC  =       152.74260792
  PAW double counting   =     19419.40885096   -19383.72729169
  entropy T*S    EENTRO =        -0.00000000
  eigenvalues    EBANDS =      -668.51063757
  atomic energy  EATOM  =      2090.93278114
  ---------------------------------------------------
  free energy    TOTEN  =      -128.22476311 eV

  energy without entropy =     -128.22476311  energy(sigma->0) =     -128.22476311


--------------------------------------------------------------------------------------------------------




--------------------------------------- Iteration      1(   8)  ---------------------------------------


    POTLOK:  cpu time      0.9046: real time      0.9052
    SETDIJ:  cpu time      0.0020: real time      0.0020
    TRIAL :  cpu time      4.3383: real time      4.3410
    CORREC:  cpu time      3.9010: real time      3.9033
    CHARGE:  cpu time      2.0136: real time      2.0143
    --------------------------------------------
      LOOP:  cpu time     11.1745: real time     11.1969

 eigenvalue-minimisations  :     0
 total energy-change (2. order) :-0.1196895E+01  (-0.5065742E+00)
 number of electron      56.0000000 magnetization 
 augmentation part       -0.0981861 magnetization 

 Free energy of the ion-electron system (eV)
  ---------------------------------------------------
  alpha Z        PSCENC =         0.61187337
  Ewald energy   TEWEN  =      6596.92229518
  -Hartree energ DENC   =     -8328.12950193
  -exchange      EXHF   =         0.00000000
  -V(xc)+E(xc)   XCENC  =       152.10582074
  PAW double counting   =     20794.14728944   -20758.28099442
  entropy T*S    EENTRO =        -0.00000000
  eigenvalues    EBANDS =      -677.73122211
  atomic energy  EATOM  =      2090.93278114
  ---------------------------------------------------
  free energy    TOTEN  =      -129.42165859 eV

  energy without entropy =     -129.42165859  energy(sigma->0) =     -129.42165859


--------------------------------------------------------------------------------------------------------




--------------------------------------- Iteration      1(   9)  ---------------------------------------


    POTLOK:  cpu time      0.9023: real time      0.9026
    SETDIJ:  cpu time      0.0020: real time      0.0020
    TRIAL :  cpu time      4.3716: real time      4.3742
    CORREC:  cpu time      3.8982: real time      3.9008
    CHARGE:  cpu time      1.9946: real time      1.9955
    --------------------------------------------
      LOOP:  cpu time     11.1828: real time     11.2060

 eigenvalue-minimisations  :     0
 total energy-change (2. order) :-0.4925288E+00  (-0.1647594E+00)
 number of electron      56.0000000 magnetization 
 augmentation part       -0.0953970 magnetization 

 Free energy of the ion-electron system (eV)
  ---------------------------------------------------
  alpha Z        PSCENC =         0.61187337
  Ewald energy   TEWEN  =      6596.92229518
  -Hartree energ DENC   =     -8302.46315260
  -exchange      EXHF   =         0.00000000
  -V(xc)+E(xc)   XCENC  =       151.32317814
  PAW double counting   =     20718.30484184   -20682.36444977
  entropy T*S    EENTRO =        -0.00000000
  eigenvalues    EBANDS =      -703.18155465
  atomic energy  EATOM  =      2090.93278114
  ---------------------------------------------------
  free energy    TOTEN  =      -129.91418736 eV

  energy without entropy =     -129.91418736  energy(sigma->0) =     -129.91418736


--------------------------------------------------------------------------------------------------------




--------------------------------------- Iteration      1(  10)  ---------------------------------------


    POTLOK:  cpu time      0.9108: real time      0.9112
    SETDIJ:  cpu time      0.0020: real time      0.0020
    TRIAL :  cpu time      4.3523: real time      4.3557
    CORREC:  cpu time      3.8948: real time      3.8968
    CHARGE:  cpu time      1.9946: real time      1.9952
    --------------------------------------------
      LOOP:  cpu time     11.1868: real time     11.1934

 eigenvalue-minimisations  :     0
 total energy-change (2. order) :-0.1636536E+00  (-0.4349975E-01)
 number of electron      56.0000000 magnetization 
 augmentation part       -0.0935265 magnetization 

 Free energy of the ion-electron system (eV)
  ---------------------------------------------------
  alpha Z        PSCENC =         0.61187337
  Ewald energy   TEWEN  =      6596.92229518
  -Hartree energ DENC   =     -8291.37288984
  -exchange      EXHF   =         0.00000000
  -V(xc)+E(xc)   XCENC  =       151.15938070
  PAW double counting   =     19876.67678434   -19840.77034659
  entropy T*S    EENTRO =        -0.00000000
  eigenvalues    EBANDS =      -714.23771930
  atomic energy  EATOM  =      2090.93278114
  ---------------------------------------------------
  free energy    TOTEN  =      -130.07784101 eV

  energy without entropy =     -130.07784101  energy(sigma->0) =     -130.07784101


--------------------------------------------------------------------------------------------------------




--------------------------------------- Iteration      1(  11)  ---------------------------------------


    POTLOK:  cpu time      0.8983: real time      0.8990
    SETDIJ:  cpu time      0.0020: real time      0.0020
    TRIAL :  cpu time      4.3365: real time      4.3405
    CORREC:  cpu time      3.8607: real time      3.8632
    CHARGE:  cpu time      1.9848: real time      1.9854
    --------------------------------------------
      LOOP:  cpu time     11.0984: real time     11.1226

 eigenvalue-minimisations  :     0
 total energy-change (2. order) :-0.4349576E-01  (-0.1356771E-01)
 number of electron      56.0000000 magnetization 
 augmentation part       -0.0921645 magnetization 

 Free energy of the ion-electron system (eV)
  ---------------------------------------------------
  alpha Z        PSCENC =         0.61187337
  Ewald energy   TEWEN  =      6596.92229518
  -Hartree energ DENC   =     -8293.27148859
  -exchange      EXHF   =         0.00000000
  -V(xc)+E(xc)   XCENC  =       151.25512750
  PAW double counting   =     19371.27334336   -19335.41341043
  entropy T*S    EENTRO =        -0.00000000
  eigenvalues    EBANDS =      -712.43185829
  atomic energy  EATOM  =      2090.93278114
  ---------------------------------------------------
  free energy    TOTEN  =      -130.12133677 eV

  energy without entropy =     -130.12133677  energy(sigma->0) =     -130.12133677


--------------------------------------------------------------------------------------------------------




--------------------------------------- Iteration      1(  12)  ---------------------------------------


    POTLOK:  cpu time      0.9027: real time      0.9033
    SETDIJ:  cpu time      0.0023: real time      0.0023
    TRIAL :  cpu time      4.3429: real time      4.3456
    CORREC:  cpu time      3.8844: real time      3.8859
    CHARGE:  cpu time      1.9825: real time      1.9831
    --------------------------------------------
      LOOP:  cpu time     11.1378: real time     11.1522

 eigenvalue-minimisations  :     0
 total energy-change (2. order) :-0.1358757E-01  (-0.4911229E-02)
 number of electron      56.0000000 magnetization 
 augmentation part       -0.0921408 magnetization 

 Free energy of the ion-electron system (eV)
  ---------------------------------------------------
  alpha Z        PSCENC =         0.61187337
  Ewald energy   TEWEN  =      6596.92229518
  -Hartree energ DENC   =     -8292.86419225
  -exchange      EXHF   =         0.00000000
  -V(xc)+E(xc)   XCENC  =       151.23638894
  PAW double counting   =     19250.91684065   -19215.07140847
  entropy T*S    EENTRO =        -0.00000000
  eigenvalues    EBANDS =      -712.81950289
  atomic energy  EATOM  =      2090.93278114
  ---------------------------------------------------
  free energy    TOTEN  =      -130.13492434 eV

  energy without entropy =     -130.13492434  energy(sigma->0) =     -130.13492434


--------------------------------------------------------------------------------------------------------




--------------------------------------- Iteration      1(  13)  ---------------------------------------


    POTLOK:  cpu time      0.8941: real time      0.8946
    SETDIJ:  cpu time      0.0020: real time      0.0020
    TRIAL :  cpu time      4.3382: real time      4.3412
    CORREC:  cpu time      3.8779: real time      3.8803
    CHARGE:  cpu time      2.0238: real time      2.0244
    --------------------------------------------
      LOOP:  cpu time     11.1495: real time     11.1730

 eigenvalue-minimisations  :     0
 total energy-change (2. order) :-0.4918140E-02  (-0.1812860E-02)
 number of electron      56.0000000 magnetization 
 augmentation part       -0.0923674 magnetization 

 Free energy of the ion-electron system (eV)
  ---------------------------------------------------
  alpha Z        PSCENC =         0.61187337
  Ewald energy   TEWEN  =      6596.92229518
  -Hartree energ DENC   =     -8293.65642002
  -exchange      EXHF   =         0.00000000
  -V(xc)+E(xc)   XCENC  =       151.23961649
  PAW double counting   =     19291.81324360   -19255.97072787
  entropy T*S    EENTRO =        -0.00000000
  eigenvalues    EBANDS =      -712.03250435
  atomic energy  EATOM  =      2090.93278114
  ---------------------------------------------------
  free energy    TOTEN  =      -130.13984248 eV

  energy without entropy =     -130.13984248  energy(sigma->0) =     -130.13984248


--------------------------------------------------------------------------------------------------------




--------------------------------------- Iteration      1(  14)  ---------------------------------------


    POTLOK:  cpu time      0.8803: real time      0.8809
    SETDIJ:  cpu time      0.0020: real time      0.0020
    TRIAL :  cpu time      4.3376: real time      4.3402
    CORREC:  cpu time      3.8385: real time      3.8409
    CHARGE:  cpu time      2.0060: real time      2.0069
    --------------------------------------------
      LOOP:  cpu time     11.0780: real time     11.1023

 eigenvalue-minimisations  :     0
 total energy-change (2. order) :-0.1812154E-02  (-0.6113228E-03)
 number of electron      56.0000000 magnetization 
 augmentation part       -0.0924179 magnetization 

 Free energy of the ion-electron system (eV)
  ---------------------------------------------------
  alpha Z        PSCENC =         0.61187337
  Ewald energy   TEWEN  =      6596.92229518
  -Hartree energ DENC   =     -8295.21166908
  -exchange      EXHF   =         0.00000000
  -V(xc)+E(xc)   XCENC  =       151.26901170
  PAW double counting   =     19360.13712223   -19324.29460154
  entropy T*S    EENTRO =        -0.00000000
  eigenvalues    EBANDS =      -710.50846763
  atomic energy  EATOM  =      2090.93278114
  ---------------------------------------------------
  free energy    TOTEN  =      -130.14165463 eV

  energy without entropy =     -130.14165463  energy(sigma->0) =     -130.14165463


--------------------------------------------------------------------------------------------------------




--------------------------------------- Iteration      1(  15)  ---------------------------------------


    POTLOK:  cpu time      0.8598: real time      0.8603
    SETDIJ:  cpu time      0.0021: real time      0.0021
    TRIAL :  cpu time      4.3458: real time      4.3483
    CORREC:  cpu time      3.8594: real time      3.8618
    CHARGE:  cpu time      1.9973: real time      1.9980
    --------------------------------------------
      LOOP:  cpu time     11.0954: real time     11.1016

 eigenvalue-minimisations  :     0
 total energy-change (2. order) :-0.6107680E-03  (-0.1926992E-03)
 number of electron      56.0000000 magnetization 
 augmentation part       -0.0923571 magnetization 

 Free energy of the ion-electron system (eV)
  ---------------------------------------------------
  alpha Z        PSCENC =         0.61187337
  Ewald energy   TEWEN  =      6596.92229518
  -Hartree energ DENC   =     -8295.29105267
  -exchange      EXHF   =         0.00000000
  -V(xc)+E(xc)   XCENC  =       151.27233219
  PAW double counting   =     19398.74557302   -19362.90025475
  entropy T*S    EENTRO =        -0.00000000
  eigenvalues    EBANDS =      -710.43581287
  atomic energy  EATOM  =      2090.93278114
  ---------------------------------------------------
  free energy    TOTEN  =      -130.14226540 eV

  energy without entropy =     -130.14226540  energy(sigma->0) =     -130.14226540


--------------------------------------------------------------------------------------------------------




--------------------------------------- Iteration      1(  16)  ---------------------------------------


    POTLOK:  cpu time      0.8683: real time      0.8685
    SETDIJ:  cpu time      0.0020: real time      0.0020
    TRIAL :  cpu time      4.3347: real time      4.3371
    CORREC:  cpu time      3.8249: real time      3.8274
    CHARGE:  cpu time      1.9816: real time      1.9826
    --------------------------------------------
      LOOP:  cpu time     11.0260: real time     11.0486

 eigenvalue-minimisations  :     0
 total energy-change (2. order) :-0.1929736E-03  (-0.5838791E-04)
 number of electron      56.0000000 magnetization 
 augmentation part       -0.0923204 magnetization 

 Free energy of the ion-electron system (eV)
  ---------------------------------------------------
  alpha Z        PSCENC =         0.61187337
  Ewald energy   TEWEN  =      6596.92229518
  -Hartree energ DENC   =     -8295.45882577
  -exchange      EXHF   =         0.00000000
  -V(xc)+E(xc)   XCENC  =       151.27950042
  PAW double counting   =     19401.43937049   -19365.59331792
  entropy T*S    EENTRO =        -0.00000000
  eigenvalues    EBANDS =      -710.27613528
  atomic energy  EATOM  =      2090.93278114
  ---------------------------------------------------
  free energy    TOTEN  =      -130.14245837 eV

  energy without entropy =     -130.14245837  energy(sigma->0) =     -130.14245837


--------------------------------------------------------------------------------------------------------




--------------------------------------- Iteration      1(  17)  ---------------------------------------


    POTLOK:  cpu time      0.8581: real time      0.8585
    SETDIJ:  cpu time      0.0020: real time      0.0020
    TRIAL :  cpu time      4.3596: real time      4.3626
    CORREC:  cpu time      3.8362: real time      3.8381
    CHARGE:  cpu time      2.0204: real time      2.0212
    --------------------------------------------
      LOOP:  cpu time     11.0925: real time     11.1152

 eigenvalue-minimisations  :     0
 total energy-change (2. order) :-0.5841445E-04  (-0.1912310E-04)
 number of electron      56.0000000 magnetization 
 augmentation part       -0.0923383 magnetization 

 Free energy of the ion-electron system (eV)
  ---------------------------------------------------
  alpha Z        PSCENC =         0.61187337
  Ewald energy   TEWEN  =      6596.92229518
  -Hartree energ DENC   =     -8295.56193143
  -exchange      EXHF   =         0.00000000
  -V(xc)+E(xc)   XCENC  =       151.28356407
  PAW double counting   =     19395.39997119   -19359.55392630
  entropy T*S    EENTRO =        -0.00000000
  eigenvalues    EBANDS =      -710.17714400
  atomic energy  EATOM  =      2090.93278114
  ---------------------------------------------------
  free energy    TOTEN  =      -130.14251679 eV

  energy without entropy =     -130.14251679  energy(sigma->0) =     -130.14251679


--------------------------------------------------------------------------------------------------------




--------------------------------------- Iteration      1(  18)  ---------------------------------------


    POTLOK:  cpu time      0.8553: real time      0.8556
    SETDIJ:  cpu time      0.0021: real time      0.0021
    TRIAL :  cpu time      4.3412: real time      4.3439
    CORREC:  cpu time      3.8261: real time      3.8281
    CHARGE:  cpu time      2.0113: real time      2.0121
    --------------------------------------------
      LOOP:  cpu time     11.0524: real time     11.0730

 eigenvalue-minimisations  :     0
 total energy-change (2. order) :-0.1909301E-04  (-0.7774737E-05)
 number of electron      56.0000000 magnetization 
 augmentation part       -0.0923674 magnetization 

 Free energy of the ion-electron system (eV)
  ---------------------------------------------------
  alpha Z        PSCENC =         0.61187337
  Ewald energy   TEWEN  =      6596.92229518
  -Hartree energ DENC   =     -8295.45610689
  -exchange      EXHF   =         0.00000000
  -V(xc)+E(xc)   XCENC  =       151.28150757
  PAW double counting   =     19393.01978955   -19357.17345371
  entropy T*S    EENTRO =        -0.00000000
  eigenvalues    EBANDS =      -710.28122209
  atomic energy  EATOM  =      2090.93278114
  ---------------------------------------------------
  free energy    TOTEN  =      -130.14253588 eV

  energy without entropy =     -130.14253588  energy(sigma->0) =     -130.14253588


--------------------------------------------------------------------------------------------------------




--------------------------------------- Iteration      1(  19)  ---------------------------------------


    POTLOK:  cpu time      0.8589: real time      0.8594
    SETDIJ:  cpu time      0.0020: real time      0.0020
    TRIAL :  cpu time      4.3402: real time      4.3434
    CORREC:  cpu time      3.8438: real time      3.8458
    CHARGE:  cpu time      2.0331: real time      2.0337
    --------------------------------------------
      LOOP:  cpu time     11.0956: real time     11.1149

 eigenvalue-minimisations  :     0
 total energy-change (2. order) :-0.7534374E-05  (-0.2797819E-05)
 number of electron      56.0000000 magnetization 
 augmentation part       -0.0923932 magnetization 

 Free energy of the ion-electron system (eV)
  ---------------------------------------------------
  alpha Z        PSCENC =         0.61187337
  Ewald energy   TEWEN  =      6596.92229518
  -Hartree energ DENC   =     -8295.47045909
  -exchange      EXHF   =         0.00000000
  -V(xc)+E(xc)   XCENC  =       151.28167213
  PAW double counting   =     19392.63462454   -19356.78832895
  entropy T*S    EENTRO =        -0.00000000
  eigenvalues    EBANDS =      -710.26700173
  atomic energy  EATOM  =      2090.93278114
  ---------------------------------------------------
  free energy    TOTEN  =      -130.14254342 eV

  energy without entropy =     -130.14254342  energy(sigma->0) =     -130.14254342


--------------------------------------------------------------------------------------------------------




--------------------------------------- Iteration      1(  20)  ---------------------------------------


    POTLOK:  cpu time      0.8537: real time      0.8537
    SETDIJ:  cpu time      0.0021: real time      0.0021
    TRIAL :  cpu time      4.3366: real time      4.3402
    CORREC:  cpu time      3.8315: real time      3.8337
    CHARGE:  cpu time      2.0017: real time      2.0023
    --------------------------------------------
      LOOP:  cpu time     11.0412: real time     11.0628

 eigenvalue-minimisations  :     0
 total energy-change (2. order) :-0.2664532E-05  (-0.9375121E-06)
 number of electron      56.0000000 magnetization 
 augmentation part       -0.0923988 magnetization 

 Free energy of the ion-electron system (eV)
  ---------------------------------------------------
  alpha Z        PSCENC =         0.61187337
  Ewald energy   TEWEN  =      6596.92229518
  -Hartree energ DENC   =     -8295.43082004
  -exchange      EXHF   =         0.00000000
  -V(xc)+E(xc)   XCENC  =       151.28063206
  PAW double counting   =     19392.87012849   -19357.02379400
  entropy T*S    EENTRO =        -0.00000000
  eigenvalues    EBANDS =      -710.30564228
  atomic energy  EATOM  =      2090.93278114
  ---------------------------------------------------
  free energy    TOTEN  =      -130.14254608 eV

  energy without entropy =     -130.14254608  energy(sigma->0) =     -130.14254608


--------------------------------------------------------------------------------------------------------




--------------------------------------- Iteration      1(  21)  ---------------------------------------


    POTLOK:  cpu time      0.8590: real time      0.8597
    SETDIJ:  cpu time      0.0021: real time      0.0021
    TRIAL :  cpu time      4.3353: real time      4.3385
    CORREC:  cpu time      3.8428: real time      3.8453
    CHARGE:  cpu time      2.0177: real time      2.0183
    --------------------------------------------
      LOOP:  cpu time     11.0888: real time     11.0961

 eigenvalue-minimisations  :     0
 total energy-change (2. order) :-0.8537536E-06  (-0.3161513E-06)
 number of electron      56.0000000 magnetization 
 augmentation part       -0.0923970 magnetization 

 Free energy of the ion-electron system (eV)
  ---------------------------------------------------
  alpha Z        PSCENC =         0.61187337
  Ewald energy   TEWEN  =      6596.92229518
  -Hartree energ DENC   =     -8295.42762146
  -exchange      EXHF   =         0.00000000
  -V(xc)+E(xc)   XCENC  =       151.28049643
  PAW double counting   =     19392.52996899   -19356.68368643
  entropy T*S    EENTRO =        -0.00000000
  eigenvalues    EBANDS =      -710.30865415
  atomic energy  EATOM  =      2090.93278114
  ---------------------------------------------------
  free energy    TOTEN  =      -130.14254693 eV

  energy without entropy =     -130.14254693  energy(sigma->0) =     -130.14254693


--------------------------------------------------------------------------------------------------------




--------------------------------------- Iteration      1(  22)  ---------------------------------------


    POTLOK:  cpu time      0.8536: real time      0.8543
    SETDIJ:  cpu time      0.0020: real time      0.0020
    TRIAL :  cpu time      4.3388: real time      4.3426
    CORREC:  cpu time      3.8304: real time      3.8326
    CHARGE:  cpu time      2.0012: real time      2.0019
    --------------------------------------------
      LOOP:  cpu time     11.0417: real time     11.0650

 eigenvalue-minimisations  :     0
 total energy-change (2. order) :-0.2692577E-06  (-0.1345466E-06)
 number of electron      56.0000000 magnetization 
 augmentation part       -0.0923949 magnetization 

 Free energy of the ion-electron system (eV)
  ---------------------------------------------------
  alpha Z        PSCENC =         0.61187337
  Ewald energy   TEWEN  =      6596.92229518
  -Hartree energ DENC   =     -8295.42963752
  -exchange      EXHF   =         0.00000000
  -V(xc)+E(xc)   XCENC  =       151.28051225
  PAW double counting   =     19392.16668580   -19356.32043974
  entropy T*S    EENTRO =        -0.00000000
  eigenvalues    EBANDS =      -710.30661768
  atomic energy  EATOM  =      2090.93278114
  ---------------------------------------------------
  free energy    TOTEN  =      -130.14254720 eV

  energy without entropy =     -130.14254720  energy(sigma->0) =     -130.14254720


--------------------------------------------------------------------------------------------------------




--------------------------------------- Iteration      1(  23)  ---------------------------------------


    POTLOK:  cpu time      0.8528: real time      0.8534
    SETDIJ:  cpu time      0.0021: real time      0.0021
    TRIAL :  cpu time      4.3484: real time      4.3518
    CORREC:  cpu time      3.8344: real time      3.8364
    CHARGE:  cpu time      1.9852: real time      1.9859
    --------------------------------------------
      LOOP:  cpu time     11.0394: real time     11.0602

 eigenvalue-minimisations  :     0
 total energy-change (2. order) :-0.9077849E-07  (-0.1232181E-06)
 number of electron      56.0000000 magnetization 
 augmentation part       -0.0923915 magnetization 

 Free energy of the ion-electron system (eV)
  ---------------------------------------------------
  alpha Z        PSCENC =         0.61187337
  Ewald energy   TEWEN  =      6596.92229518
  -Hartree energ DENC   =     -8295.42977408
  -exchange      EXHF   =         0.00000000
  -V(xc)+E(xc)   XCENC  =       151.28050700
  PAW double counting   =     19392.17474861   -19356.32850133
  entropy T*S    EENTRO =        -0.00000000
  eigenvalues    EBANDS =      -710.30647718
  atomic energy  EATOM  =      2090.93278114
  ---------------------------------------------------
  free energy    TOTEN  =      -130.14254729 eV

  energy without entropy =     -130.14254729  energy(sigma->0) =     -130.14254729


--------------------------------------------------------------------------------------------------------




--------------------------------------- Iteration      1(  24)  ---------------------------------------


    POTLOK:  cpu time      0.8563: real time      0.8567
    SETDIJ:  cpu time      0.0020: real time      0.0020
    TRIAL :  cpu time      4.3319: real time      4.3350
    CORREC:  cpu time      3.8221: real time      3.8236
    CHARGE:  cpu time      2.0198: real time      2.0205
    --------------------------------------------
      LOOP:  cpu time     11.0472: real time     11.0684

 eigenvalue-minimisations  :     0
 total energy-change (2. order) : 0.7071139E-07  (-0.1172229E-06)
 number of electron      56.0000000 magnetization 
 augmentation part       -0.0923922 magnetization 

 Free energy of the ion-electron system (eV)
  ---------------------------------------------------
  alpha Z        PSCENC =         0.61187337
  Ewald energy   TEWEN  =      6596.92229518
  -Hartree energ DENC   =     -8295.44119778
  -exchange      EXHF   =         0.00000000
  -V(xc)+E(xc)   XCENC  =       151.28078337
  PAW double counting   =     19392.64708943   -19356.80083646
  entropy T*S    EENTRO =        -0.00000000
  eigenvalues    EBANDS =      -710.29533547
  atomic energy  EATOM  =      2090.93278114
  ---------------------------------------------------
  free energy    TOTEN  =      -130.14254722 eV

  energy without entropy =     -130.14254722  energy(sigma->0) =     -130.14254722


--------------------------------------------------------------------------------------------------------




--------------------------------------- Iteration      1(  25)  ---------------------------------------


    POTLOK:  cpu time      0.8509: real time      0.8514
    SETDIJ:  cpu time      0.0020: real time      0.0020
    TRIAL :  cpu time      4.3393: real time      4.3424
    CORREC:  cpu time      3.7257: real time      3.7279
    EDDIAG:  cpu time      1.5346: real time      1.5355
    CHARGE:  cpu time      1.9819: real time      1.9826
    --------------------------------------------
      LOOP:  cpu time     12.4647: real time     12.4740

 eigenvalue-minimisations  :     0
 total energy-change (2. order) :-0.9743962E-07  ( 0.3289250E-07)
 number of electron      56.0000000 magnetization 
 augmentation part       -0.0923915 magnetization 

 Free energy of the ion-electron system (eV)
  ---------------------------------------------------
  alpha Z        PSCENC =         0.61187337
  Ewald energy   TEWEN  =      6596.92229518
  -Hartree energ DENC   =     -8295.43095600
  -exchange      EXHF   =         0.00000000
  -V(xc)+E(xc)   XCENC  =       151.28055702
  PAW double counting   =     19392.59309533   -19356.74682614
  entropy T*S    EENTRO =        -0.00000000
  eigenvalues    EBANDS =      -710.30536721
  atomic energy  EATOM  =      2090.93278114
  ---------------------------------------------------
  free energy    TOTEN  =      -130.14254732 eV

  energy without entropy =     -130.14254732  energy(sigma->0) =     -130.14254732


--------------------------------------------------------------------------------------------------------


  average scaling for gradient   1.4492


 average (electrostatic) potential at core
  the test charge radii are     0.5770  0.4325  0.5902
  (the norm of the test charge is              1.0000)
       1 -87.1514       2 -87.1506       3 -87.1516       4 -87.1511       5 -87.1518
       6 -87.1514       7 -44.9375       8 -44.9362       9 -44.9362      10 -44.9362
      11 -44.9375      12 -44.9365      13 -44.9363      14 -44.9364      15 -44.9377
      16 -44.9367      17 -44.9367      18 -44.9366      19-103.3383      20-103.3387
      21-103.3373      22-103.3389



 E-fermi :  -4.9134     XC(G=0):  -0.1628     alpha+bet : -0.0850

 Fermi energy:        -4.9134386892

 k-point     1 :       0.0000    0.0000    0.0000
  band No.  band energies     occupation 
      1     -25.3153      2.00000
      2     -22.2378      2.00000
      3     -22.2371      2.00000
      4     -22.2355      2.00000
      5     -17.3987      2.00000
      6     -17.3986      2.00000
      7     -16.0341      2.00000
      8     -16.0339      2.00000
      9     -16.0335      2.00000
     10     -13.8348      2.00000
     11     -11.9690      2.00000
     12     -11.9689      2.00000
     13     -11.9686      2.00000
     14     -11.6082      2.00000
     15     -11.6079      2.00000
     16     -11.6077      2.00000
     17      -9.2987      2.00000
     18      -9.2983      2.00000
     19      -9.2979      2.00000
     20      -9.1314      2.00000
     21      -9.1312      2.00000
     22      -8.6402      2.00000
     23      -8.6400      2.00000
     24      -8.6391      2.00000
     25      -8.5244      2.00000
     26      -5.0201      2.00000
     27      -5.0199      2.00000
     28      -5.0193      2.00000
     29      -0.6272      0.00000
     30      -0.0691      0.00000
     31      -0.0690      0.00000
     32      -0.0689      0.00000
     33       0.0896      0.00000
     34       0.2505      0.00000
     35       0.2549      0.00000
     36       0.3191      0.00000
     37       0.3393      0.00000
     38       0.3457      0.00000
     39       0.3804      0.00000
     40       0.3933      0.00000
     41       0.3951      0.00000
     42       0.4210      0.00000
     43       0.4335      0.00000
     44       0.4597      0.00000
     45       0.5293      0.00000
     46       0.5295      0.00000
     47       0.5297      0.00000
     48       0.5934      0.00000
     49       0.5994      0.00000
     50       0.6079      0.00000
     51       0.6627      0.00000
     52       0.6683      0.00000
     53       0.6731      0.00000
     54       0.6772      0.00000
     55       0.6796      0.00000
     56       0.7022      0.00000
     57       0.7531      0.00000
     58       0.8515      0.00000
     59       0.8721      0.00000
     60       0.8794      0.00000
     61       0.8943      0.00000
     62       0.9259      0.00000
     63       0.9309      0.00000
     64       0.9525      0.00000
     65       1.0554      0.00000
     66       1.0669      0.00000
     67       1.0784      0.00000
     68       1.0791      0.00000
     69       1.0854      0.00000
     70       1.0944      0.00000
     71       1.1543      0.00000
     72       1.1649      0.00000
     73       1.1676      0.00000
     74       1.1935      0.00000
     75       1.1994      0.00000
     76       1.2205      0.00000
     77       1.2482      0.00000
     78       1.2483      0.00000
     79       1.2485      0.00000
     80       1.2486      0.00000
     81       1.2487      0.00000
     82       1.2564      0.00000
     83       1.2565      0.00000
     84       1.2565      0.00000
     85       1.2580      0.00000
     86       1.3064      0.00000
     87       1.3242      0.00000
     88       1.3243      0.00000
     89       1.3427      0.00000
     90       1.3570      0.00000
     91       1.3680      0.00000
     92       1.3793      0.00000
     93       1.3844      0.00000
     94       1.3949      0.00000
     95       1.4033      0.00000
     96       1.4395      0.00000
     97       1.4446      0.00000
     98       1.4467      0.00000
     99       1.4513      0.00000
    100       1.4532      0.00000
    101       1.4700      0.00000
    102       1.4839      0.00000
    103       1.4843      0.00000
    104       1.4852      0.00000
    105       1.4868      0.00000
    106       1.4873      0.00000
    107       1.4876      0.00000
    108       1.4954      0.00000
    109       1.4955      0.00000
    110       1.6057      0.00000
    111       1.6154      0.00000
    112       1.6393      0.00000
    113       1.6512      0.00000
    114       1.7427      0.00000
    115       1.7606      0.00000
    116       1.7634      0.00000
    117       1.7701      0.00000
    118       1.7775      0.00000
    119       1.8166      0.00000
    120       1.8276      0.00000
    121       1.8696      0.00000
    122       1.8865      0.00000
    123       1.9209      0.00000
    124       1.9234      0.00000
    125       1.9521      0.00000
    126       1.9679      0.00000
    127       1.9875      0.00000
    128       2.0050      0.00000
    129       2.0348      0.00000
    130       2.0351      0.00000
    131       2.0711      0.00000
    132       2.0855      0.00000
    133       2.0916      0.00000
    134       2.0916      0.00000
    135       2.1094      0.00000
    136       2.1128      0.00000
    137       2.1467      0.00000
    138       2.1672      0.00000
    139       2.1821      0.00000
    140       2.1843      0.00000
    141       2.1850      0.00000
    142       2.1859      0.00000
    143       2.1970      0.00000
    144       2.2066      0.00000
    145       2.2071      0.00000
    146       2.2074      0.00000
    147       2.2094      0.00000
    148       2.2096      0.00000
    149       2.2098      0.00000
    150       2.2126      0.00000
    151       2.2134      0.00000
    152       2.2612      0.00000
    153       2.2662      0.00000
    154       2.2820      0.00000
    155       2.2886      0.00000
    156       2.2936      0.00000
    157       2.2967      0.00000
    158       2.3150      0.00000
    159       2.3242      0.00000
    160       2.3313      0.00000
    161       2.3584      0.00000
    162       2.3665      0.00000
    163       2.3774      0.00000
    164       2.3806      0.00000
    165       2.3888      0.00000
    166       2.3980      0.00000
    167       2.4091      0.00000
    168       2.4188      0.00000
    169       2.4243      0.00000
    170       2.4430      0.00000
    171       2.4466      0.00000
    172       2.4528      0.00000
    173       2.4529      0.00000
    174       2.4532      0.00000
    175       2.4578      0.00000
    176       2.4720      0.00000
    177       2.4933      0.00000
    178       2.5029      0.00000
    179       2.5258      0.00000
    180       2.5490      0.00000
    181       2.5523      0.00000
    182       2.5675      0.00000
    183       2.5689      0.00000
    184       2.5711      0.00000
    185       2.5795      0.00000
    186       2.5838      0.00000
    187       2.5916      0.00000
    188       2.6238      0.00000
    189       2.6270      0.00000
    190       2.6341      0.00000
    191       2.6377      0.00000
    192       2.6462      0.00000
    193       2.6531      0.00000
    194       2.6561      0.00000
    195       2.6621      0.00000
    196       2.6644      0.00000
    197       2.6790      0.00000
    198       2.6824      0.00000
    199       2.6831      0.00000
    200       2.7306      0.00000
    201       2.7391      0.00000
    202       2.7514      0.00000
    203       2.7690      0.00000
    204       2.7968      0.00000
    205       2.8018      0.00000
    206       2.8081      0.00000
    207       2.8253      0.00000
    208       2.8280      0.00000
    209       2.8430      0.00000
    210       2.8435      0.00000
    211       2.8474      0.00000
    212       2.9016      0.00000
    213       2.9109      0.00000
    214       2.9371      0.00000
    215       2.9460      0.00000
    216       2.9809      0.00000
    217       2.9970      0.00000
    218       3.0065      0.00000
    219       3.0451      0.00000
    220       3.0452      0.00000
    221       3.0679      0.00000
    222       3.1138      0.00000
    223       3.1144      0.00000
    224       3.1315      0.00000
    225       3.1331      0.00000
    226       3.1580      0.00000
    227       3.1614      0.00000
    228       3.1634      0.00000
    229       3.1660      0.00000
    230       3.1701      0.00000
    231       3.1719      0.00000
    232       3.1732      0.00000
    233       3.1981      0.00000
    234       3.2265      0.00000
    235       3.2627      0.00000
    236       3.2709      0.00000
    237       3.2936      0.00000
    238       3.3103      0.00000
    239       3.3219      0.00000
    240       3.3401      0.00000
    241       3.3713      0.00000
    242       3.4762      0.00000
    243       3.4946      0.00000
    244       3.5291      0.00000
    245       3.5496      0.00000
    246       3.5680      0.00000
    247       3.5907      0.00000
    248       3.6056      0.00000
    249       3.6217      0.00000
    250       3.6830      0.00000
    251       3.7395      0.00000
    252       3.7605      0.00000
    253       3.8104      0.00000
    254       3.9835      0.00000
    255       4.0939      0.00000
    256       4.4852      0.00000


--------------------------------------------------------------------------------------------------------


 soft charge-density along one line, spin component           1
         0         1         2         3         4         5         6         7         8         9
 total charge-density along one line

 pseudopotential strength for first ion, spin component:           1
 12.751  21.459   0.004   0.006  -0.005   0.007   0.011  -0.009
 21.459  36.111   0.006   0.011  -0.009   0.011   0.019  -0.015
  0.004   0.006  -3.197   0.001   0.000  -5.733   0.001   0.001
  0.006   0.011   0.001  -3.197   0.001   0.001  -5.732   0.001
 -0.005  -0.009   0.000   0.001  -3.196   0.001   0.001  -5.730
  0.007   0.011  -5.733   0.001   0.001 -10.256   0.002   0.001
  0.011   0.019   0.001  -5.732   0.001   0.002 -10.254   0.002
 -0.009  -0.015   0.001   0.001  -5.730   0.001   0.002 -10.252
 total augmentation occupancy for first ion, spin component:           1
  7.236  -2.506   0.113   0.194  -0.158  -0.075  -0.130   0.106
 -2.506   0.915  -0.095  -0.164   0.134   0.051   0.089  -0.073
  0.113  -0.095   5.609  -0.063  -0.009  -1.876   0.082   0.027
  0.194  -0.164  -0.063   5.536  -0.016   0.082  -1.781   0.047
 -0.158   0.134  -0.009  -0.016   5.488   0.027   0.047  -1.696
 -0.075   0.051  -1.876   0.082   0.027   0.645  -0.050  -0.017
 -0.130   0.089   0.082  -1.781   0.047  -0.050   0.587  -0.030
  0.106  -0.073   0.027   0.047  -1.696  -0.017  -0.030   0.533


------------------------ aborting loop because EDIFF is reached ----------------------------------------


    FORLOC:  cpu time      0.0425: real time      0.0425
    FORNL :  cpu time      0.8459: real time      0.8467
    FORCOR:  cpu time      0.5884: real time      0.5890
    OFIELD:  cpu time      0.0055: real time      0.0059

 ---------------------------------------------------------------------------------------------

         DFTD3 V3.0 Rev 1        
 IVDW         = 11
 DF pbe       
 parameters
 VDW_S6       =    1.0000
 VDW_S8       =    0.7220
 VDW_SR       =    1.2170
 rs18     =    1.0000
 alpha6   =   14.0000
 alpha8   =   16.0000
 k1-k3    =   16.0000    1.3333   -4.0000
 VDW_RADIUS   =   50.2022 A
 VDW_CNRADIUS =   21.1671 A
 Edisp (eV)   -0.34091

 E6    (eV) :    -0.1262
 E8    (eV) :    -0.2147
 % E8        : 62.97
    FORVDW:  cpu time      0.0792: real time      0.0821

 VOLUME and BASIS-vectors are now :
 -----------------------------------------------------------------------------
  energy-cutoff  :     1000.00
  volume of cell :    15625.00
      direct lattice vectors                 reciprocal lattice vectors
    25.000000000  0.000000000  0.000000000     0.040000000  0.000000000  0.000000000
     0.000000000 25.000000000  0.000000000     0.000000000  0.040000000  0.000000000
     0.000000000  0.000000000 25.000000000     0.000000000  0.000000000  0.040000000

  length of vectors
    25.000000000 25.000000000 25.000000000     0.040000000  0.040000000  0.040000000


 FORCES acting on ions:
    Electron-Ion                     Ewald-Force                    Non-Local-Force
 -----------------------------------------------------------------------------------------------
   -.183E+03 0.130E+03 0.225E+03   0.187E+03 -.132E+03 -.228E+03   -.327E+01 0.231E+01 0.400E+01
   0.183E+03 0.259E+03 -.499E-03   -.187E+03 -.264E+03 0.411E-03   0.326E+01 0.461E+01 0.143E-03
   -.183E+03 0.130E+03 -.225E+03   0.187E+03 -.132E+03 0.228E+03   -.327E+01 0.231E+01 -.400E+01
   0.183E+03 -.130E+03 0.225E+03   -.187E+03 0.132E+03 -.228E+03   0.326E+01 -.231E+01 0.400E+01
   -.183E+03 -.259E+03 0.893E-02   0.186E+03 0.264E+03 -.100E-01   -.327E+01 -.462E+01 0.625E-04
   0.183E+03 -.130E+03 -.225E+03   -.187E+03 0.132E+03 0.228E+03   0.326E+01 -.231E+01 -.400E+01
   -.101E+03 0.200E+02 0.347E+02   0.107E+03 -.201E+02 -.348E+02   -.563E+01 0.821E-01 0.142E+00
   -.401E+01 0.544E+02 0.941E+02   0.229E+01 -.570E+02 -.988E+02   0.172E+01 0.268E+01 0.464E+01
   0.526E+02 0.744E+02 0.595E+02   -.545E+02 -.771E+02 -.640E+02   0.195E+01 0.276E+01 0.450E+01
   0.526E+02 0.744E+02 -.595E+02   -.545E+02 -.771E+02 0.640E+02   0.195E+01 0.276E+01 -.450E+01
   -.101E+03 0.200E+02 -.347E+02   0.107E+03 -.201E+02 0.348E+02   -.563E+01 0.821E-01 -.142E+00
   -.401E+01 0.544E+02 -.941E+02   0.229E+01 -.570E+02 0.988E+02   0.172E+01 0.268E+01 -.464E+01
   0.526E+02 0.143E+02 0.941E+02   -.545E+02 -.168E+02 -.987E+02   0.195E+01 0.252E+01 0.464E+01
   0.526E+02 -.887E+02 0.347E+02   -.545E+02 0.939E+02 -.348E+02   0.195E+01 -.528E+01 0.141E+00
   -.101E+03 -.400E+02 0.908E-04   0.107E+03 0.402E+02 -.113E-03   -.563E+01 -.164E+00 0.205E-04
   -.401E+01 -.109E+03 0.719E-04   0.229E+01 0.114E+03 -.135E-03   0.172E+01 -.536E+01 0.924E-05
   0.526E+02 0.143E+02 -.941E+02   -.545E+02 -.168E+02 0.987E+02   0.195E+01 0.252E+01 -.464E+01
   0.526E+02 -.887E+02 -.347E+02   -.545E+02 0.939E+02 0.348E+02   0.195E+01 -.528E+01 -.141E+00
   -.128E+03 0.363E+03 -.288E-03   0.138E+03 -.392E+03 0.746E-04   -.103E+02 0.292E+02 0.231E-03
   -.128E+03 -.181E+03 0.314E+03   0.138E+03 0.196E+03 -.339E+03   -.103E+02 -.146E+02 0.253E+02
   0.385E+03 -.601E-01 -.985E-02   -.415E+03 0.659E-01 0.107E-01   0.309E+02 -.713E-02 0.679E-03
   -.128E+03 -.181E+03 -.314E+03   0.138E+03 0.196E+03 0.339E+03   -.103E+02 -.146E+02 -.253E+02
 -----------------------------------------------------------------------------------------------
   0.241E-01 0.924E-02 -.583E-02   -.284E-13 -.853E-13 0.000E+00   -.238E-01 -.919E-02 0.582E-02


 POSITION                                       TOTAL-FORCE (eV/Angst)
 -----------------------------------------------------------------------------------
     13.18860     11.55265     11.30635        -0.034250      0.020317      0.036582
     11.23960     10.86365     12.49995         0.026602      0.042571      0.000049
     13.18860     11.55265     13.69355        -0.034175      0.020467     -0.037265
     11.23970     12.93085     11.30625         0.025367     -0.022054      0.040442
     13.18860     13.62005     12.49995        -0.034837     -0.044109     -0.001001
     11.23970     12.93085     13.69375         0.025630     -0.022170     -0.043569
     14.29000     11.54825     11.29875        -0.029087      0.001295      0.002793
     12.82950     11.03195     10.40445         0.008682      0.016092      0.028341
     10.86810     10.33855     11.60575         0.012820      0.017049      0.022656
     10.86810     10.33855     13.39415         0.012816      0.017048     -0.022692
     14.29000     11.54825     13.70115        -0.029074      0.001284     -0.002801
     12.82950     11.03195     14.59545         0.008620      0.016335     -0.028323
     10.86810     12.41885     10.40445         0.013768      0.012306      0.027806
     10.86810     13.96775     11.29875         0.013411     -0.027624      0.002229
     14.29000     13.62885     12.49995        -0.029194     -0.003170     -0.000001
     12.82950     14.66145     12.49995         0.008228     -0.032457     -0.000052
     10.86810     12.41885     14.59555         0.014112      0.012361     -0.028002
     10.86810     13.96775     13.70115         0.013371     -0.027663     -0.001805
     12.71540     10.82355     12.49995         0.044626     -0.114228      0.000013
     12.71550     12.95085     11.27165         0.043001      0.059202     -0.097830
     10.71000     12.24185     12.49995        -0.122950     -0.001289      0.001503
     12.71550     12.95085     13.72815         0.042516      0.058438      0.100930
 -----------------------------------------------------------------------------------
    total drift:                                0.000275      0.000051     -0.000010


--------------------------------------------------------------------------------------------------------



  FREE ENERGIE OF THE ION-ELECTRON SYSTEM (eV)
  ---------------------------------------------------
  free  energy   TOTEN  =      -130.48345534 eV

  energy  without entropy=     -130.48345534  energy(sigma->0) =     -130.48345534



--------------------------------------------------------------------------------------------------------


    POTLOK:  cpu time      0.8624: real time      0.8634


--------------------------------------------------------------------------------------------------------


 stress matrix after NEB project (eV)
      0.09142     -0.00000      0.00000
     -0.00000      0.09143     -0.00000
      0.00000     -0.00000      0.09142
  FORCES: max atom, RMS     0.124135    0.063940
  FORCE total and by dimension    0.299907    0.122950
  Stress total and by dimension    0.158350    0.091426
     LOOP+:  cpu time    297.5709: real time    298.0485
    4ORBIT:  cpu time      0.0000: real time      0.0000

 total amount of memory used by VASP MPI-rank0   849951. kBytes
=======================================================================

   base      :      30000. kBytes
   nonl-proj :     152633. kBytes
   fftplans  :     222158. kBytes
   grid      :     431671. kBytes
   one-center:         16. kBytes
   wavefun   :      13473. kBytes

  
  
 General timing and accounting informations for this job:
 ========================================================
  
                  Total CPU time used (sec):      375.829
                            User time (sec):      328.678
                          System time (sec):       47.150
                         Elapsed time (sec):      393.384
  
                   Maximum memory used (kb):     1163124.
                   Average memory used (kb):          N/A
  
                          Minor page faults:      1819181
                          Major page faults:         1176
                 Voluntary context switches:        12473
