 vasp.6.4.1 05Apr23 (build Jun  6 2023 14:46:38) gamma-only                      
 executed on        HPECrayEX_GCC date 2024.08.22  12:34:43
 running  512 mpi-ranks, with    1 threads/rank, on    4 nodes
 distrk:  each k-point on  512 cores,    1 groups
 distr:  one band on NCORE= 128 cores,    4 groups


--------------------------------------------------------------------------------------------------------


 INCAR:
   ALGO = Conjugate
   NPAR = 4
   ISMEAR = 0
   SIGMA = 0.01
   PREC = Accurate
   EDIFF = 1E-7
   ENCUT = 1000
   ISIF = 0
   GGA = RE
   LUSE_VDW = .TRUE.
   AGGAC = 0.0000
   LASPH = .TRUE.
   LWAVE = .FALSE.
   LCHARG = .FALSE.

 POTCAR:    PAW_PBE C_h 06Feb2004                 
 POTCAR:    PAW_PBE H_h 06Feb2004                 
 POTCAR:    PAW_PBE N_h 06Feb2004                 
 -----------------------------------------------------------------------------
|                                                                             |
|               ----> ADVICE to this user running VASP <----                  |
|                                                                             |
|     You have switched on vdW-DFT.                                           |
|     This routine was written and supplied by Jiri Klimes. We recommend      |
|     that you carefully read and cite the following publications:            |
|       J. Klimes, D.R. Bowler, A. Michelides                                 |
|          J. Phys.: Cond Matt. 22 022201 (2010)                              |
|       J. Klimes, D.R. Bowler, A. Michelides                                 |
|          Phys. Rev. B. 83, 195131 (2011)                                    |
|     and references therein.                                                 |
|                                                                             |
 -----------------------------------------------------------------------------

 POTCAR:    PAW_PBE C_h 06Feb2004                 
   VRHFIN =C: s2p2                                                                                  
   LEXCH  = PE                                                                                      
   EATOM  =   147.1560 eV,   10.8157 Ry                                                             
                                                                                                    
   TITEL  = PAW_PBE C_h 06Feb2004                                                                   
   LULTRA =        F    use ultrasoft PP ?                                                          
   IUNSCR =        1    unscreen: 0-lin 1-nonlin 2-no                                               
   RPACOR =    0.800    partial core radius                                                         
   POMASS =   12.011; ZVAL   =    4.000    mass and valenz                                          
   RCORE  =    1.100    outmost cutoff radius                                                       
   RWIGS  =    1.630; RWIGS  =    0.863    wigner-seitz radius (au A)                               
   ENMAX  =  700.000; ENMIN  =  500.000 eV                                                          
   ICORE  =        2    local potential                                                             
   LCOR   =        T    correct aug charges                                                         
   LPAW   =        T    paw PP                                                                      
   EAUG   =  946.768                                                                                
   DEXC   =    0.000                                                                                
   RMAX   =    1.128    core radius for proj-oper                                                   
   RAUG   =    1.300    factor for augmentation sphere                                              
   RDEP   =    1.162    radius for radial grids                                                     
   RDEPT  =    1.088    core radius for aug-charge                                                  
                                                                                                    
   Atomic configuration                                                                             
    4 entries                                                                                       
     n  l   j            E        occ.                                                              
     1  0  0.50      -273.3789   2.0000                                                             
     2  0  0.50       -13.7508   2.0000                                                             
     2  1  0.50        -5.2854   2.0000                                                             
     3  2  1.50        -5.4423   0.0000                                                             
   Description                                                                                      
     l       E           TYP  RCUT    TYP  RCUT                                                     
     0    -13.7508458     23  1.100                                                                 
     0     -8.2022199     23  1.100                                                                 
     1     -5.2854383     23  1.100                                                                 
     1      1.1560700     23  1.100                                                                 
     2     -5.4423304      7  1.100                                                                 
  local pseudopotential read in
  partial core-charges read in
  partial kinetic energy density read in
  atomic valenz-charges read in
  non local Contribution for L=           0  read in
    real space projection operators read in
  non local Contribution for L=           0  read in
    real space projection operators read in
  non local Contribution for L=           1  read in
    real space projection operators read in
  non local Contribution for L=           1  read in
    real space projection operators read in
    PAW grid and wavefunctions read in

   number of l-projection  operators is LMAX  =           4
   number of lm-projection operators is LMMAX =           8

 POTCAR:    PAW_PBE H_h 06Feb2004                 
   VRHFIN =H: ultrasoft test                                                                        
   LEXCH  = PE                                                                                      
   EATOM  =    12.4884 eV,    0.9179 Ry                                                             
                                                                                                    
   TITEL  = PAW_PBE H_h 06Feb2004                                                                   
   LULTRA =        F    use ultrasoft PP ?                                                          
   IUNSCR =        0    unscreen: 0-lin 1-nonlin 2-no                                               
   RPACOR =    0.000    partial core radius                                                         
   POMASS =    1.000; ZVAL   =    1.000    mass and valenz                                          
   RCORE  =    0.800    outmost cutoff radius                                                       
   RWIGS  =    0.700; RWIGS  =    0.370    wigner-seitz radius (au A)                               
   ENMAX  =  700.000; ENMIN  =  350.000 eV                                                          
   RCLOC  =    0.701    cutoff for local pot                                                        
   LCOR   =        T    correct aug charges                                                         
   LPAW   =        T    paw PP                                                                      
   EAUG   = 1000.000                                                                                
   RMAX   =    0.819    core radius for proj-oper                                                   
   RAUG   =    1.000    factor for augmentation sphere                                              
   RDEP   =    0.817    radius for radial grids                                                     
   RDEPT  =    0.817    core radius for aug-charge                                                  
                                                                                                    
   Atomic configuration                                                                             
    2 entries                                                                                       
     n  l   j            E        occ.                                                              
     1  0  0.50        -6.4927   1.0000                                                             
     2  1  0.50        -3.4015   0.0000                                                             
   Description                                                                                      
     l       E           TYP  RCUT    TYP  RCUT                                                     
     0     -6.4927493     23  0.800                                                                 
     0      6.8029130     23  0.800                                                                 
     1     -6.8029130     23  0.800                                                                 
  local pseudopotential read in
  atomic valenz-charges read in
  non local Contribution for L=           0  read in
    real space projection operators read in
  non local Contribution for L=           0  read in
    real space projection operators read in
  non local Contribution for L=           1  read in
    real space projection operators read in
    PAW grid and wavefunctions read in

   number of l-projection  operators is LMAX  =           3
   number of lm-projection operators is LMMAX =           5

 POTCAR:    PAW_PBE N_h 06Feb2004                 
   VRHFIN =N: s2p3                                                                                  
   LEXCH  = PE                                                                                      
   EATOM  =   264.5486 eV,   19.4438 Ry                                                             
                                                                                                    
   TITEL  = PAW_PBE N_h 06Feb2004                                                                   
   LULTRA =        F    use ultrasoft PP ?                                                          
   IUNSCR =        1    unscreen: 0-lin 1-nonlin 2-no                                               
   RPACOR =    0.800    partial core radius                                                         
   POMASS =   14.001; ZVAL   =    5.000    mass and valenz                                          
   RCORE  =    1.100    outmost cutoff radius                                                       
   RWIGS  =    1.480; RWIGS  =    0.783    wigner-seitz radius (au A)                               
   ENMAX  =  700.000; ENMIN  =  500.000 eV                                                          
   ICORE  =        2    local potential                                                             
   LCOR   =        T    correct aug charges                                                         
   LPAW   =        T    paw PP                                                                      
   EAUG   =  904.640                                                                                
   DEXC   =    0.000                                                                                
   RMAX   =    1.127    core radius for proj-oper                                                   
   RAUG   =    1.300    factor for augmentation sphere                                              
   RDEP   =    1.115    radius for radial grids                                                     
   RDEPT  =    1.106    core radius for aug-charge                                                  
                                                                                                    
   Atomic configuration                                                                             
    4 entries                                                                                       
     n  l   j            E        occ.                                                              
     1  0  0.50      -384.7179   2.0000                                                             
     2  0  0.50       -18.5828   2.0000                                                             
     2  1  0.50        -7.0898   3.0000                                                             
     3  2  1.50        -6.8029   0.0000                                                             
   Description                                                                                      
     l       E           TYP  RCUT    TYP  RCUT                                                     
     0    -18.5828117     23  1.100                                                                 
     0    -15.0750597     23  1.100                                                                 
     1     -7.0897851     23  1.100                                                                 
     1     -1.9663412     23  1.100                                                                 
     2     -6.8029130      7  1.100                                                                 
  local pseudopotential read in
  partial core-charges read in
  partial kinetic energy density read in
  kinetic energy density of atom read in
  atomic valenz-charges read in
  non local Contribution for L=           0  read in
    real space projection operators read in
  non local Contribution for L=           0  read in
    real space projection operators read in
  non local Contribution for L=           1  read in
    real space projection operators read in
  non local Contribution for L=           1  read in
    real space projection operators read in
    PAW grid and wavefunctions read in

   number of l-projection  operators is LMAX  =           4
   number of lm-projection operators is LMMAX =           8

 -----------------------------------------------------------------------------
|                                                                             |
|               ----> ADVICE to this user running VASP <----                  |
|                                                                             |
|     You have a (more or less) 'large supercell' and for larger cells it     |
|     might be more efficient to use real-space projection operators.         |
|     Therefore, try LREAL= Auto in the INCAR file.                           |
|     Mind: For very accurate calculation, you might also keep the            |
|     reciprocal projection scheme (i.e. LREAL=.FALSE.).                      |
|                                                                             |
 -----------------------------------------------------------------------------

 -----------------------------------------------------------------------------
|                                                                             |
|               ----> ADVICE to this user running VASP <----                  |
|                                                                             |
|     You enforced a specific xc type in the INCAR file but a different       |
|     type was found in the POTCAR file.                                      |
|     I HOPE YOU KNOW WHAT YOU ARE DOING!                                     |
|                                                                             |
 -----------------------------------------------------------------------------

  PAW_PBE C_h 06Feb2004                 :
 energy of atom  1       EATOM= -147.1560
 kinetic energy error for atom=    0.0031 (will be added to EATOM!!)
  PAW_PBE H_h 06Feb2004                 :
 energy of atom  2       EATOM=  -12.4884
 kinetic energy error for atom=    0.0006 (will be added to EATOM!!)
  PAW_PBE N_h 06Feb2004                 :
 energy of atom  3       EATOM= -264.5486
 kinetic energy error for atom=    0.0081 (will be added to EATOM!!)


 POSCAR:  C  H  N
  positions in cartesian coordinates
  No initial velocities read in
 exchange correlation table for  LEXCH =       40
   RHO(1)=    0.500       N(1)  =     2000
   RHO(2)=  100.500       N(2)  =     4000

 VTST: version 4.1, (05/19/21)

 CHAIN: initializing optimizer
 
 OPT: Using VASP Dynamics algorithm
 CHAIN: Read ICHAIN            0

 POSCAR:  C  H  N
  positions in cartesian coordinates
  No initial velocities read in



--------------------------------------------------------------------------------------------------------


 ion  position               nearest neighbor table
   1  0.528  0.462  0.452-   7 1.10   8 1.10  20 1.48  19 1.48
   2  0.450  0.435  0.500-   9 1.10  10 1.10  19 1.48  21 1.48
   3  0.528  0.462  0.548-  11 1.10  12 1.10  22 1.48  19 1.48
   4  0.450  0.517  0.452-  14 1.10  13 1.10  20 1.48  21 1.48
   5  0.528  0.545  0.500-  15 1.10  16 1.10  22 1.48  20 1.48
   6  0.450  0.517  0.548-  18 1.10  17 1.10  22 1.48  21 1.48
   7  0.572  0.462  0.452-   1 1.10
   8  0.513  0.441  0.416-   1 1.10
   9  0.435  0.414  0.464-   2 1.10
  10  0.435  0.414  0.536-   2 1.10
  11  0.572  0.462  0.548-   3 1.10
  12  0.513  0.441  0.584-   3 1.10
  13  0.435  0.497  0.416-   4 1.10
  14  0.435  0.559  0.452-   4 1.10
  15  0.572  0.545  0.500-   5 1.10
  16  0.513  0.586  0.500-   5 1.10
  17  0.435  0.497  0.584-   6 1.10
  18  0.435  0.559  0.548-   6 1.10
  19  0.509  0.433  0.500-   2 1.48   1 1.48   3 1.48
  20  0.509  0.518  0.451-   4 1.48   1 1.48   5 1.48
  21  0.428  0.490  0.500-   2 1.48   4 1.48   6 1.48
  22  0.509  0.518  0.549-   6 1.48   3 1.48   5 1.48

  LATTYP: Found a simple cubic cell.
 ALAT       =    25.0000000000
  
  Lattice vectors:
  
 A1 = (  25.0000000000,   0.0000000000,   0.0000000000)
 A2 = (   0.0000000000,  25.0000000000,   0.0000000000)
 A3 = (   0.0000000000,   0.0000000000,  25.0000000000)


Analysis of symmetry for initial positions (statically):
=====================================================================
 Subroutine PRICEL returns:
 Original cell was already a primitive cell.
 

 Routine SETGRP: Setting up the symmetry group for a 
 simple cubic supercell.


 Subroutine GETGRP returns: Found  2 space group operations
 (whereof  2 operations were pure point group operations)
 out of a pool of 48 trial point group operations.


The static configuration has the point symmetry C_1h.


Analysis of symmetry for dynamics (positions and initial velocities):
=====================================================================
 Subroutine PRICEL returns:
 Original cell was already a primitive cell.
 

 Routine SETGRP: Setting up the symmetry group for a 
 simple cubic supercell.


 Subroutine GETGRP returns: Found  2 space group operations
 (whereof  2 operations were pure point group operations)
 out of a pool of 48 trial point group operations.


The dynamic configuration has the point symmetry C_1h.


 Subroutine INISYM returns: Found  2 space group operations
 (whereof  2 operations are pure point group operations),
 and found     1 'primitive' translations


----------------------------------------------------------------------------------------

                                     Primitive cell                                     

  volume of cell :   15625.0000

  direct lattice vectors                    reciprocal lattice vectors
    25.000000000  0.000000000  0.000000000     0.040000000  0.000000000  0.000000000
     0.000000000 25.000000000  0.000000000     0.000000000  0.040000000  0.000000000
     0.000000000  0.000000000 25.000000000     0.000000000  0.000000000  0.040000000

  length of vectors
    25.000000000 25.000000000 25.000000000     0.040000000  0.040000000  0.040000000

  position of ions in fractional coordinates (direct lattice)
     0.527544000  0.462106000  0.452254000
     0.449584000  0.434546000  0.499998000
     0.527544000  0.462106000  0.547742000
     0.449588000  0.517234000  0.452250000
     0.527544000  0.544802000  0.499998000
     0.449588000  0.517234000  0.547750000
     0.571600000  0.461930000  0.451950000
     0.513180000  0.441278000  0.416178000
     0.434724000  0.413542000  0.464230000
     0.434724000  0.413542000  0.535766000
     0.571600000  0.461930000  0.548046000
     0.513180000  0.441278000  0.583818000
     0.434724000  0.496754000  0.416178000
     0.434724000  0.558710000  0.451950000
     0.571600000  0.545154000  0.499998000
     0.513180000  0.586458000  0.499998000
     0.434724000  0.496754000  0.583822000
     0.434724000  0.558710000  0.548046000
     0.508616000  0.432942000  0.499998000
     0.508620000  0.518034000  0.450866000
     0.428400000  0.489674000  0.499998000
     0.508620000  0.518034000  0.549126000

  ion indices of the primitive-cell ions
   primitive index   ion index
                 1           1
                 2           2
                 3           3
                 4           4
                 5           5
                 6           6
                 7           7
                 8           8
                 9           9
                10          10
                11          11
                12          12
                13          13
                14          14
                15          15
                16          16
                17          17
                18          18
                19          19
                20          20
                21          21
                22          22

----------------------------------------------------------------------------------------



 KPOINTS: auto                                    

Automatic generation of k-mesh.
 Grid dimensions read from file:
 generate k-points for:    1    1    1

 Generating k-lattice:

  Cartesian coordinates                     Fractional coordinates (reciprocal lattice)
     0.040000000  0.000000000  0.000000000     1.000000000  0.000000000  0.000000000
     0.000000000  0.040000000  0.000000000     0.000000000  1.000000000  0.000000000
     0.000000000  0.000000000  0.040000000     0.000000000  0.000000000  1.000000000

  Length of vectors
     0.040000000  0.040000000  0.040000000

  Shift w.r.t. Gamma in fractional coordinates (k-lattice)
     0.000000000  0.000000000  0.000000000

 
 Subroutine IBZKPT returns following result:
 ===========================================
 
 Found      1 irreducible k-points:
 
 Following reciprocal coordinates:
            Coordinates               Weight
  0.000000  0.000000  0.000000      1.000000
 
 Following cartesian coordinates:
            Coordinates               Weight
  0.000000  0.000000  0.000000      1.000000
 


--------------------------------------------------------------------------------------------------------




 Dimension of arrays:
   k-points           NKPTS =      1   k-points in BZ     NKDIM =      1   number of bands    NBANDS=     40
   number of dos      NEDOS =    301   number of ions     NIONS =     22
   non local maximal  LDIM  =      4   non local SUM 2l+1 LMDIM =      8
   total plane-waves  NPLWV = ******
   max r-space proj   IRMAX =      1   max aug-charges    IRDMAX=   9146
   dimension x,y,z NGX =   270 NGY =  270 NGZ =  270
   dimension x,y,z NGXF=   540 NGYF=  540 NGZF=  540
   support grid    NGXF=   540 NGYF=  540 NGZF=  540
   ions per type =               6  12   4
   NGX,Y,Z   is equivalent  to a cutoff of  17.95, 17.95, 17.95 a.u.
   NGXF,Y,Z  is equivalent  to a cutoff of  35.91, 35.91, 35.91 a.u.

 SYSTEM =  unknown system                          
 POSCAR =   C  H  N                                

 Startparameter for this run:
   NWRITE =      2    write-flag & timer
   PREC   = accura    normal or accurate (medium, high low for compatibility)
   ISTART =      0    job   : 0-new  1-cont  2-samecut
   ICHARG =      2    charge: 1-file 2-atom 10-const
   ISPIN  =      1    spin polarized calculation?
   LNONCOLLINEAR =      F non collinear calculations
   LSORBIT =      F    spin-orbit coupling
   INIWAV =      1    electr: 0-lowe 1-rand  2-diag
   LASPH  =      T    aspherical Exc in radial PAW
 Electronic Relaxation 1
   ENCUT  = 1000.0 eV  73.50 Ry    8.57 a.u.  64.46 64.46 64.46*2*pi/ulx,y,z
   ENINI  = 1000.0     initial cutoff
   ENAUG  = 1000.0 eV  augmentation charge cutoff
   NELM   =     60;   NELMIN=  2; NELMDL= -5     # of ELM steps 
   EDIFF  = 0.1E-06   stopping-criterion for ELM
   LREAL  =      F    real-space projection
   NLSPLINE    = F    spline interpolate recip. space projectors
   LCOMPAT=      F    compatible to vasp.4.4
   GGA_COMPAT  = T    GGA compatible to vasp.4.4-vasp.4.6
   LMAXPAW     = -100 max onsite density
   LMAXMIX     =    2 max onsite mixed and CHGCAR
   VOSKOWN=      0    Vosko Wilk Nusair interpolation
   ROPT   =    0.00000   0.00000   0.00000
 Ionic relaxation
   EDIFFG = 0.1E-05   stopping-criterion for IOM
   NSW    =      0    number of steps for IOM
   NBLOCK =      1;   KBLOCK =      1    inner block; outer block 
   IBRION =     -1    ionic relax: 0-MD 1-quasi-New 2-CG
   NFREE  =      0    steps in history (QN), initial steepest desc. (CG)
   ISIF   =      0    stress and relaxation
   IWAVPR =     10    prediction:  0-non 1-charg 2-wave 3-comb
   ISYM   =      2    0-nonsym 1-usesym 2-fastsym
   LCORR  =      T    Harris-Foulkes like correction to forces

   POTIM  = 0.5000    time-step for ionic-motion
   TEIN   =    0.0    initial temperature
   TEBEG  =    0.0;   TEEND  =   0.0 temperature during run
   SMASS  =  -3.00    Nose mass-parameter (am)
   estimated Nose-frequenzy (Omega)   =  0.10E-29 period in steps = 0.13E+47 mass=  -0.143E-25a.u.
   SCALEE = 1.0000    scale energy and forces
   NPACO  =    256;   APACO  = 10.0  distance and # of slots for P.C.
   PSTRESS=    0.0 pullay stress

  Mass of Ions in am
   POMASS =  12.01  1.00 14.00
  Ionic Valenz
   ZVAL   =   4.00  1.00  5.00
  Atomic Wigner-Seitz radii
   RWIGS  =  -1.00 -1.00 -1.00
  virtual crystal weights 
   VCA    =   1.00  1.00  1.00
   NELECT =      56.0000    total number of electrons
   NUPDOWN=      -1.0000    fix difference up-down

 DOS related values:
   EMIN   =  10.00;   EMAX   =-10.00  energy-range for DOS
   EFERMI =   0.00;   METHOD = LEGACY      
   ISMEAR =     0;   SIGMA  =   0.01  broadening in eV -4-tet -1-fermi 0-gaus

 Electronic relaxation 2 (details)
   IALGO  =     58    algorithm
   LDIAG  =      T    sub-space diagonalisation (order eigenvalues)
   LSUBROT=      F    optimize rotation matrix (better conditioning)
   TURBO    =      0    0=normal 1=particle mesh
   IRESTART =      0    0=no restart 2=restart with 2 vectors
   NREBOOT  =      0    no. of reboots
   NMIN     =      0    reboot dimension
   EREF     =   0.00    reference energy to select bands
   IMIX   =      4    mixing-type and parameters
     AMIX     =   0.40;   BMIX     =  1.00
     AMIX_MAG =   1.60;   BMIX_MAG =  1.00
     AMIN     =   0.10
     WC   =   100.;   INIMIX=   1;  MIXPRE=   1;  MAXMIX= -45

 Intra band minimization:
   WEIMIN = 0.0000     energy-eigenvalue tresh-hold
   EBREAK =  0.63E-09  absolut break condition
   DEPER  =   0.30     relativ break condition  

   TIME   =   0.40     timestep for ELM

  volume/ion in A,a.u.               =     710.23      4792.85
  Fermi-wavevector in a.u.,A,eV,Ry     =   0.250533  0.473438  0.853991  0.062767
  Thomas-Fermi vector in A             =   1.067299

 Write flags
   LWAVE        =      F    write WAVECAR
   LDOWNSAMPLE  =      F    k-point downsampling of WAVECAR
   LCHARG       =      F    write CHGCAR
   LVTOT        =      F    write LOCPOT, total local potential
   LVHAR        =      F    write LOCPOT, Hartree potential only
   LELF         =      F    write electronic localiz. function (ELF)
   LORBIT       =      0    0 simple, 1 ext, 2 COOP (PROOUT), +10 PAW based schemes


 Dipole corrections
   LMONO  =      F    monopole corrections only (constant potential shift)
   LDIPOL =      F    correct potential (dipole corrections)
   IDIPOL =      0    1-x, 2-y, 3-z, 4-all directions 
   EPSILON=  1.0000000 bulk dielectric constant

 Exchange correlation treatment:
   GGA     =    RE    GGA type
   LEXCH   =    40    internal setting for exchange type
   LIBXC   =     F    Libxc                    
   VOSKOWN =     0    Vosko Wilk Nusair interpolation
   LHFCALC =     F    Hartree Fock is set to
   LHFONE  =     F    Hartree Fock one center treatment
   AEXX    =    0.0000 exact exchange contribution

 vdW DFT:
   LUSE_VDW   =     T    switch on vdW DFT
   IVDW_NL    =     1    kernel type
   LSPIN_VDW  =     F    use spin-polarized vdW DFT
   Zab_VDW    =-.8491    correlation parameter
   PARAM1     =0.1234
   PARAM2     =1.0000
   PARAM3     =0.0000
   -- rVV10 --
   BPARAM     = 6.3000
   CPARAM     = 0.0093

 Linear response parameters
   LEPSILON=     F    determine dielectric tensor
   LRPA    =     F    only Hartree local field effects (RPA)
   LNABLA  =     F    use nabla operator in PAW spheres
   LVEL    =     F    velocity operator in full k-point grid
   CSHIFT  =0.1000    complex shift for real part using Kramers Kronig
   OMEGAMAX=  -1.0    maximum frequency
   DEG_THRESHOLD= 0.2000000E-02 threshold for treating states as degnerate
   RTIME   =   -0.100 relaxation time in fs
  (WPLASMAI=    0.000 imaginary part of plasma frequency in eV, 0.658/RTIME)
   DFIELD  = 0.0000000 0.0000000 0.0000000 field for delta impulse in time

  Optional k-point grid parameters
   LKPOINTS_OPT  =     F    use optional k-point grid
   KPOINTS_OPT_MODE=     1    mode for optional k-point grid

 Orbital magnetization related:
   ORBITALMAG=     F  switch on orbital magnetization
   LCHIMAG   =     F  perturbation theory with respect to B field
   DQ        =  0.001000  dq finite difference perturbation B field
   LLRAUG    =     F  two centre corrections for induced B field
   LBONE     =     F  B-component reconstruction in AE one-centre
   LVGVCALC  =     T  calculate vGv susceptibility
   LVGVAPPL  =     F  apply vGv susceptibility instead of pGv for G=0

 Random number generation:
   RANDOM_GENERATOR = DEFAULT
   PCG_SEED         = not used


--------------------------------------------------------------------------------------------------------


 Static calculation
 charge density and potential will be updated during run
 non-spin polarized calculation
 Conjugate gradient for all bands (Freysoldt, et al. PRB 79, 241103 (2009))
 preconditioned conjugated gradient                                        
 perform sub-space diagonalisation
    before iterative eigenvector-optimisation
 modified Broyden-mixing scheme, WC =      100.0
 initial mixing is a Kerker type mixing with AMIX =  0.4000 and BMIX =      1.0000
 Hartree-type preconditioning will be used
 using additional bands           12
 reciprocal scheme for non local part
 use partial core corrections
 no Harris-corrections to forces 
 use gradient corrections 
 use of overlap-Matrix (Vanderbilt PP)
 Gauss-broadening in eV      SIGMA  =   0.01


--------------------------------------------------------------------------------------------------------


  energy-cutoff  :     1000.00
  volume of cell :    15625.00
      direct lattice vectors                 reciprocal lattice vectors
    25.000000000  0.000000000  0.000000000     0.040000000  0.000000000  0.000000000
     0.000000000 25.000000000  0.000000000     0.000000000  0.040000000  0.000000000
     0.000000000  0.000000000 25.000000000     0.000000000  0.000000000  0.040000000

  length of vectors
    25.000000000 25.000000000 25.000000000     0.040000000  0.040000000  0.040000000



 k-points in units of 2pi/SCALE and weight: auto                                    
   0.00000000  0.00000000  0.00000000       1.000

 k-points in reciprocal lattice and weights: auto                                    
   0.00000000  0.00000000  0.00000000       1.000

 position of ions in fractional coordinates (direct lattice) 
   0.52754400  0.46210600  0.45225400
   0.44958400  0.43454600  0.49999800
   0.52754400  0.46210600  0.54774200
   0.44958800  0.51723400  0.45225000
   0.52754400  0.54480200  0.49999800
   0.44958800  0.51723400  0.54775000
   0.57160000  0.46193000  0.45195000
   0.51318000  0.44127800  0.41617800
   0.43472400  0.41354200  0.46423000
   0.43472400  0.41354200  0.53576600
   0.57160000  0.46193000  0.54804600
   0.51318000  0.44127800  0.58381800
   0.43472400  0.49675400  0.41617800
   0.43472400  0.55871000  0.45195000
   0.57160000  0.54515400  0.49999800
   0.51318000  0.58645800  0.49999800
   0.43472400  0.49675400  0.58382200
   0.43472400  0.55871000  0.54804600
   0.50861600  0.43294200  0.49999800
   0.50862000  0.51803400  0.45086600
   0.42840000  0.48967400  0.49999800
   0.50862000  0.51803400  0.54912600

 position of ions in cartesian coordinates  (Angst):
  13.18860000 11.55265000 11.30635000
  11.23960000 10.86365000 12.49995000
  13.18860000 11.55265000 13.69355000
  11.23970000 12.93085000 11.30625000
  13.18860000 13.62005000 12.49995000
  11.23970000 12.93085000 13.69375000
  14.29000000 11.54825000 11.29875000
  12.82950000 11.03195000 10.40445000
  10.86810000 10.33855000 11.60575000
  10.86810000 10.33855000 13.39415000
  14.29000000 11.54825000 13.70115000
  12.82950000 11.03195000 14.59545000
  10.86810000 12.41885000 10.40445000
  10.86810000 13.96775000 11.29875000
  14.29000000 13.62885000 12.49995000
  12.82950000 14.66145000 12.49995000
  10.86810000 12.41885000 14.59555000
  10.86810000 13.96775000 13.70115000
  12.71540000 10.82355000 12.49995000
  12.71550000 12.95085000 11.27165000
  10.71000000 12.24185000 12.49995000
  12.71550000 12.95085000 13.72815000



--------------------------------------------------------------------------------------------------------


 use parallel FFT for orbitals z direction half grid
 k-point   1 :   0.0000 0.0000 0.0000  plane waves:  561155

 maximum and minimum number of plane-waves per node :      4393     4375

 maximum number of plane-waves:    561155
 maximum index in each direction: 
   IXMAX=   64   IYMAX=   64   IZMAX=   64
   IXMIN=  -64   IYMIN=  -64   IZMIN=    0


 parallel 3D FFT for wavefunctions:
    minimum data exchange during FFTs selected (reduces bandwidth)
 parallel 3D FFT for charge:
    minimum data exchange during FFTs selected (reduces bandwidth)


 total amount of memory used by VASP MPI-rank0   102605. kBytes
=======================================================================

   base      :      30000. kBytes
   nonl-proj :       2389. kBytes
   fftplans  :      21917. kBytes
   grid      :      46189. kBytes
   one-center:          1. kBytes
   wavefun   :       2109. kBytes

     INWAV:  cpu time      0.0000: real time      0.0000
 Broyden mixing: mesh for mixing (old mesh)
   NGX =129   NGY =129   NGZ =129
  (NGX  =540   NGY  =540   NGZ  =540)
  gives a total of ****** points

 initial charge density was supplied:
 charge density of overlapping atoms calculated
 number of electron      56.0000000 magnetization 
 keeping initial charge density in first step


--------------------------------------------------------------------------------------------------------


 Maximum index for augmentation-charges            0 (set IRDMAX)


--------------------------------------------------------------------------------------------------------


 First call to EWALD:  gamma=   0.071
 Maximum number of real-space cells 3x 3x 3
 Maximum number of reciprocal cells 3x 3x 3

    FEWALD:  cpu time      0.0046: real time      0.0046


--------------------------------------- Ionic step        1  -------------------------------------------




--------------------------------------- Iteration      1(   1)  ---------------------------------------


vdW kernel read from vdw_kernel.bindat
  0.0000  0.2424  0.5071  0.7962  1.1119  1.4567  1.8333  2.2446  2.6937  3.1842
  3.7199  4.3049  4.9438  5.6415  6.4036  7.2358  8.1446  9.1372 10.2212 11.4050
 12.6979 14.1099 15.6519 17.3360 19.1751 21.1837 23.3773 25.7729 28.3892 31.2465
 34.3669 37.7748 41.4965 45.5611 50.0000

    POTLOK:  cpu time     17.0835: real time     17.0898
    SETDIJ:  cpu time      0.0728: real time      0.0734
    TRIAL :  cpu time      0.8081: real time      0.8101
    CORREC:  cpu time      0.0019: real time      0.0021
    --------------------------------------------
      LOOP:  cpu time     17.9765: real time     17.9856

 eigenvalue-minimisations  :    96
 total energy-change (2. order) : 0.6150629E+03  (-0.1431989E+04)
 number of electron      56.0000000 magnetization 
 augmentation part       56.0000000 magnetization 

 Free energy of the ion-electron system (eV)
  ---------------------------------------------------
  alpha Z        PSCENC =         0.61187337
  Ewald energy   TEWEN  =      6596.92229518
  -Hartree energ DENC   =     -8035.09987111
  -exchange      EXHF   =         0.00000000
  -V(xc)+E(xc)   XCENC  =       133.15959246
  PAW double counting   =      1532.90367166    -1491.38151968
  entropy T*S    EENTRO =        -0.00485486
  eigenvalues    EBANDS =      -243.04953439
  atomic energy  EATOM  =      2121.00121096
  ---------------------------------------------------
  free energy    TOTEN  =       615.06286359 eV

  energy without entropy =      615.06771845  energy(sigma->0) =      615.06529102


--------------------------------------------------------------------------------------------------------




--------------------------------------- Iteration      1(   2)  ---------------------------------------


    TRIAL :  cpu time      0.9938: real time      0.9941
    CORREC:  cpu time      0.0005: real time      0.0005
    --------------------------------------------
      LOOP:  cpu time      1.0079: real time      1.0224

 eigenvalue-minimisations  :   136
 total energy-change (2. order) :-0.2813280E+03  (-0.2664370E+03)
 number of electron      56.0000000 magnetization 
 augmentation part       56.0000000 magnetization 

 Free energy of the ion-electron system (eV)
  ---------------------------------------------------
  alpha Z        PSCENC =         0.61187337
  Ewald energy   TEWEN  =      6596.92229518
  -Hartree energ DENC   =     -8035.09987111
  -exchange      EXHF   =         0.00000000
  -V(xc)+E(xc)   XCENC  =       133.15959246
  PAW double counting   =      1532.90367166    -1491.38151968
  entropy T*S    EENTRO =        -0.00067075
  eigenvalues    EBANDS =      -524.38169165
  atomic energy  EATOM  =      2121.00121096
  ---------------------------------------------------
  free energy    TOTEN  =       333.73489043 eV

  energy without entropy =      333.73556119  energy(sigma->0) =      333.73522581


--------------------------------------------------------------------------------------------------------




--------------------------------------- Iteration      1(   3)  ---------------------------------------


    TRIAL :  cpu time      0.9607: real time      0.9610
    CORREC:  cpu time      0.0001: real time      0.0001
    --------------------------------------------
      LOOP:  cpu time      0.9804: real time      0.9958

 eigenvalue-minimisations  :   128
 total energy-change (2. order) :-0.3178105E+03  (-0.3037476E+03)
 number of electron      56.0000000 magnetization 
 augmentation part       56.0000000 magnetization 

 Free energy of the ion-electron system (eV)
  ---------------------------------------------------
  alpha Z        PSCENC =         0.61187337
  Ewald energy   TEWEN  =      6596.92229518
  -Hartree energ DENC   =     -8035.09987111
  -exchange      EXHF   =         0.00000000
  -V(xc)+E(xc)   XCENC  =       133.15959246
  PAW double counting   =      1532.90367166    -1491.38151968
  entropy T*S    EENTRO =        -0.00000000
  eigenvalues    EBANDS =      -842.19281493
  atomic energy  EATOM  =      2121.00121096
  ---------------------------------------------------
  free energy    TOTEN  =        15.92443790 eV

  energy without entropy =       15.92443790  energy(sigma->0) =       15.92443790


--------------------------------------------------------------------------------------------------------




--------------------------------------- Iteration      1(   4)  ---------------------------------------


    TRIAL :  cpu time      0.8186: real time      0.8192
    CORREC:  cpu time      0.0001: real time      0.0001
    --------------------------------------------
      LOOP:  cpu time      0.8489: real time      0.8496

 eigenvalue-minimisations  :   104
 total energy-change (2. order) :-0.1280615E+03  (-0.1275444E+03)
 number of electron      56.0000000 magnetization 
 augmentation part       56.0000000 magnetization 

 Free energy of the ion-electron system (eV)
  ---------------------------------------------------
  alpha Z        PSCENC =         0.61187337
  Ewald energy   TEWEN  =      6596.92229518
  -Hartree energ DENC   =     -8035.09987111
  -exchange      EXHF   =         0.00000000
  -V(xc)+E(xc)   XCENC  =       133.15959246
  PAW double counting   =      1532.90367166    -1491.38151968
  entropy T*S    EENTRO =        -0.00000000
  eigenvalues    EBANDS =      -970.25430048
  atomic energy  EATOM  =      2121.00121096
  ---------------------------------------------------
  free energy    TOTEN  =      -112.13704765 eV

  energy without entropy =     -112.13704765  energy(sigma->0) =     -112.13704765


--------------------------------------------------------------------------------------------------------




--------------------------------------- Iteration      1(   5)  ---------------------------------------


    TRIAL :  cpu time      0.7729: real time      0.7732
    CORREC:  cpu time      0.0001: real time      0.0001
    CHARGE:  cpu time      3.4283: real time      3.4308
    --------------------------------------------
      LOOP:  cpu time      4.2139: real time      4.2355

 eigenvalue-minimisations  :    96
 total energy-change (2. order) :-0.1096801E+02  (-0.1094789E+02)
 number of electron      56.0000000 magnetization 
 augmentation part       -0.0668748 magnetization 

 Free energy of the ion-electron system (eV)
  ---------------------------------------------------
  alpha Z        PSCENC =         0.61187337
  Ewald energy   TEWEN  =      6596.92229518
  -Hartree energ DENC   =     -8035.09987111
  -exchange      EXHF   =         0.00000000
  -V(xc)+E(xc)   XCENC  =       133.15959246
  PAW double counting   =      1532.90367166    -1491.38151968
  entropy T*S    EENTRO =        -0.00000000
  eigenvalues    EBANDS =      -981.22231366
  atomic energy  EATOM  =      2121.00121096
  ---------------------------------------------------
  free energy    TOTEN  =      -123.10506082 eV

  energy without entropy =     -123.10506082  energy(sigma->0) =     -123.10506082


--------------------------------------------------------------------------------------------------------




--------------------------------------- Iteration      1(   6)  ---------------------------------------


    POTLOK:  cpu time     16.6399: real time     16.6448
    SETDIJ:  cpu time      0.0670: real time      0.0670
    TRIAL :  cpu time      0.4634: real time      0.4654
    CORREC:  cpu time     20.1740: real time     20.1807
    CHARGE:  cpu time      3.3896: real time      3.3911
    --------------------------------------------
      LOOP:  cpu time     40.7494: real time     40.7814

 eigenvalue-minimisations  :     0
 total energy-change (2. order) : 0.1759297E+02  (-0.6236179E+01)
 number of electron      56.0000000 magnetization 
 augmentation part       -0.0768077 magnetization 

 Free energy of the ion-electron system (eV)
  ---------------------------------------------------
  alpha Z        PSCENC =         0.61187337
  Ewald energy   TEWEN  =      6596.92229518
  -Hartree energ DENC   =     -8526.48475774
  -exchange      EXHF   =         0.00000000
  -V(xc)+E(xc)   XCENC  =       150.88873845
  PAW double counting   =     13590.35598573   -13550.91089112
  entropy T*S    EENTRO =        -0.00000000
  eigenvalues    EBANDS =      -487.89654093
  atomic energy  EATOM  =      2121.00121096
  ---------------------------------------------------
  free energy    TOTEN  =      -105.51208611 eV

  energy without entropy =     -105.51208611  energy(sigma->0) =     -105.51208611


--------------------------------------------------------------------------------------------------------




--------------------------------------- Iteration      1(   7)  ---------------------------------------


    POTLOK:  cpu time     16.6393: real time     16.6438
    SETDIJ:  cpu time      0.0672: real time      0.0672
    TRIAL :  cpu time      0.4521: real time      0.4521
    CORREC:  cpu time     20.1474: real time     20.1528
    CHARGE:  cpu time      3.3878: real time      3.3893
    --------------------------------------------
      LOOP:  cpu time     40.7243: real time     40.7358

 eigenvalue-minimisations  :     0
 total energy-change (2. order) :-0.6302099E+01  (-0.9657927E+00)
 number of electron      56.0000000 magnetization 
 augmentation part       -0.0976561 magnetization 

 Free energy of the ion-electron system (eV)
  ---------------------------------------------------
  alpha Z        PSCENC =         0.61187337
  Ewald energy   TEWEN  =      6596.92229518
  -Hartree energ DENC   =     -8305.52848961
  -exchange      EXHF   =         0.00000000
  -V(xc)+E(xc)   XCENC  =       144.62132968
  PAW double counting   =     16811.21021365   -16770.95590313
  entropy T*S    EENTRO =        -0.00000000
  eigenvalues    EBANDS =      -709.69671550
  atomic energy  EATOM  =      2121.00121096
  ---------------------------------------------------
  free energy    TOTEN  =      -111.81418541 eV

  energy without entropy =     -111.81418541  energy(sigma->0) =     -111.81418541


--------------------------------------------------------------------------------------------------------




--------------------------------------- Iteration      1(   8)  ---------------------------------------


    POTLOK:  cpu time     16.6016: real time     16.6062
    SETDIJ:  cpu time      0.0672: real time      0.0672
    TRIAL :  cpu time      0.4511: real time      0.4511
    CORREC:  cpu time     20.2273: real time     20.2329
    CHARGE:  cpu time      3.3869: real time      3.3884
    --------------------------------------------
      LOOP:  cpu time     40.7490: real time     40.7772

 eigenvalue-minimisations  :     0
 total energy-change (2. order) :-0.9700614E+00  (-0.3485305E+00)
 number of electron      56.0000000 magnetization 
 augmentation part       -0.0970411 magnetization 

 Free energy of the ion-electron system (eV)
  ---------------------------------------------------
  alpha Z        PSCENC =         0.61187337
  Ewald energy   TEWEN  =      6596.92229518
  -Hartree energ DENC   =     -8313.66450841
  -exchange      EXHF   =         0.00000000
  -V(xc)+E(xc)   XCENC  =       144.40774655
  PAW double counting   =     18586.86487652   -18546.41919913
  entropy T*S    EENTRO =        -0.00000000
  eigenvalues    EBANDS =      -702.50854181
  atomic energy  EATOM  =      2121.00121096
  ---------------------------------------------------
  free energy    TOTEN  =      -112.78424677 eV

  energy without entropy =     -112.78424677  energy(sigma->0) =     -112.78424677


--------------------------------------------------------------------------------------------------------




--------------------------------------- Iteration      1(   9)  ---------------------------------------


    POTLOK:  cpu time     16.6514: real time     16.6559
    SETDIJ:  cpu time      0.0671: real time      0.0671
    TRIAL :  cpu time      0.4496: real time      0.4501
    CORREC:  cpu time     20.1286: real time     20.1340
    CHARGE:  cpu time      3.3885: real time      3.3895
    --------------------------------------------
      LOOP:  cpu time     40.6998: real time     40.7278

 eigenvalue-minimisations  :     0
 total energy-change (2. order) :-0.3419693E+00  (-0.1550748E+00)
 number of electron      56.0000000 magnetization 
 augmentation part       -0.0958579 magnetization 

 Free energy of the ion-electron system (eV)
  ---------------------------------------------------
  alpha Z        PSCENC =         0.61187337
  Ewald energy   TEWEN  =      6596.92229518
  -Hartree energ DENC   =     -8301.43702020
  -exchange      EXHF   =         0.00000000
  -V(xc)+E(xc)   XCENC  =       144.07033847
  PAW double counting   =     19001.62113630   -18961.09232472
  entropy T*S    EENTRO =        -0.00000000
  eigenvalues    EBANDS =      -714.82372541
  atomic energy  EATOM  =      2121.00121096
  ---------------------------------------------------
  free energy    TOTEN  =      -113.12621606 eV

  energy without entropy =     -113.12621606  energy(sigma->0) =     -113.12621606


--------------------------------------------------------------------------------------------------------




--------------------------------------- Iteration      1(  10)  ---------------------------------------


    POTLOK:  cpu time     16.6854: real time     16.6901
    SETDIJ:  cpu time      0.0672: real time      0.0672
    TRIAL :  cpu time      0.4488: real time      0.4493
    CORREC:  cpu time     20.2512: real time     20.2573
    CHARGE:  cpu time      3.3925: real time      3.3936
    --------------------------------------------
      LOOP:  cpu time     40.8767: real time     40.8893

 eigenvalue-minimisations  :     0
 total energy-change (2. order) :-0.1526270E+00  (-0.4398697E-01)
 number of electron      56.0000000 magnetization 
 augmentation part       -0.0932581 magnetization 

 Free energy of the ion-electron system (eV)
  ---------------------------------------------------
  alpha Z        PSCENC =         0.61187337
  Ewald energy   TEWEN  =      6596.92229518
  -Hartree energ DENC   =     -8293.45024440
  -exchange      EXHF   =         0.00000000
  -V(xc)+E(xc)   XCENC  =       143.98796416
  PAW double counting   =     18579.16054938   -18538.64006302
  entropy T*S    EENTRO =        -0.00000000
  eigenvalues    EBANDS =      -722.87242869
  atomic energy  EATOM  =      2121.00121096
  ---------------------------------------------------
  free energy    TOTEN  =      -113.27884307 eV

  energy without entropy =     -113.27884307  energy(sigma->0) =     -113.27884307


--------------------------------------------------------------------------------------------------------




--------------------------------------- Iteration      1(  11)  ---------------------------------------


    POTLOK:  cpu time     16.6412: real time     16.6457
    SETDIJ:  cpu time      0.0673: real time      0.0673
    TRIAL :  cpu time      0.4501: real time      0.4505
    CORREC:  cpu time     20.2163: real time     20.2226
    CHARGE:  cpu time      3.3894: real time      3.3908
    --------------------------------------------
      LOOP:  cpu time     40.7779: real time     40.8076

 eigenvalue-minimisations  :     0
 total energy-change (2. order) :-0.4387652E-01  (-0.1423473E-01)
 number of electron      56.0000000 magnetization 
 augmentation part       -0.0912422 magnetization 

 Free energy of the ion-electron system (eV)
  ---------------------------------------------------
  alpha Z        PSCENC =         0.61187337
  Ewald energy   TEWEN  =      6596.92229518
  -Hartree energ DENC   =     -8293.05005693
  -exchange      EXHF   =         0.00000000
  -V(xc)+E(xc)   XCENC  =       144.00161694
  PAW double counting   =     18198.38740495   -18157.89750702
  entropy T*S    EENTRO =        -0.00000000
  eigenvalues    EBANDS =      -723.29955704
  atomic energy  EATOM  =      2121.00121096
  ---------------------------------------------------
  free energy    TOTEN  =      -113.32271959 eV

  energy without entropy =     -113.32271959  energy(sigma->0) =     -113.32271959


--------------------------------------------------------------------------------------------------------




--------------------------------------- Iteration      1(  12)  ---------------------------------------


    POTLOK:  cpu time     16.6635: real time     16.6682
    SETDIJ:  cpu time      0.0672: real time      0.0672
    TRIAL :  cpu time      0.4516: real time      0.4516
    CORREC:  cpu time     20.1069: real time     20.1126
    CHARGE:  cpu time      3.3848: real time      3.3867
    --------------------------------------------
      LOOP:  cpu time     40.7047: real time     40.7170

 eigenvalue-minimisations  :     0
 total energy-change (2. order) :-0.1423823E-01  (-0.4992947E-02)
 number of electron      56.0000000 magnetization 
 augmentation part       -0.0907069 magnetization 

 Free energy of the ion-electron system (eV)
  ---------------------------------------------------
  alpha Z        PSCENC =         0.61187337
  Ewald energy   TEWEN  =      6596.92229518
  -Hartree energ DENC   =     -8291.64354675
  -exchange      EXHF   =         0.00000000
  -V(xc)+E(xc)   XCENC  =       143.93837074
  PAW double counting   =     18049.78788642   -18009.31219361
  entropy T*S    EENTRO =        -0.00000000
  eigenvalues    EBANDS =      -724.64285412
  atomic energy  EATOM  =      2121.00121096
  ---------------------------------------------------
  free energy    TOTEN  =      -113.33695782 eV

  energy without entropy =     -113.33695782  energy(sigma->0) =     -113.33695782


--------------------------------------------------------------------------------------------------------




--------------------------------------- Iteration      1(  13)  ---------------------------------------


    POTLOK:  cpu time     16.6733: real time     16.6783
    SETDIJ:  cpu time      0.0670: real time      0.0670
    TRIAL :  cpu time      0.4513: real time      0.4513
    CORREC:  cpu time     20.1682: real time     20.1742
    CHARGE:  cpu time      3.3928: real time      3.3940
    --------------------------------------------
      LOOP:  cpu time     40.7663: real time     40.7958

 eigenvalue-minimisations  :     0
 total energy-change (2. order) :-0.4998662E-02  (-0.2182645E-02)
 number of electron      56.0000000 magnetization 
 augmentation part       -0.0906797 magnetization 

 Free energy of the ion-electron system (eV)
  ---------------------------------------------------
  alpha Z        PSCENC =         0.61187337
  Ewald energy   TEWEN  =      6596.92229518
  -Hartree energ DENC   =     -8292.51697160
  -exchange      EXHF   =         0.00000000
  -V(xc)+E(xc)   XCENC  =       143.94010771
  PAW double counting   =     18034.72887778   -17994.26204962
  entropy T*S    EENTRO =        -0.00000000
  eigenvalues    EBANDS =      -723.76730026
  atomic energy  EATOM  =      2121.00121096
  ---------------------------------------------------
  free energy    TOTEN  =      -113.34195648 eV

  energy without entropy =     -113.34195648  energy(sigma->0) =     -113.34195648


--------------------------------------------------------------------------------------------------------




--------------------------------------- Iteration      1(  14)  ---------------------------------------


    POTLOK:  cpu time     16.5722: real time     16.5766
    SETDIJ:  cpu time      0.0672: real time      0.0672
    TRIAL :  cpu time      0.4515: real time      0.4518
    CORREC:  cpu time     20.2158: real time     20.2213
    CHARGE:  cpu time      3.3839: real time      3.3846
    --------------------------------------------
      LOOP:  cpu time     40.7037: real time     40.7326

 eigenvalue-minimisations  :     0
 total energy-change (2. order) :-0.2181358E-02  (-0.1026687E-02)
 number of electron      56.0000000 magnetization 
 augmentation part       -0.0905744 magnetization 

 Free energy of the ion-electron system (eV)
  ---------------------------------------------------
  alpha Z        PSCENC =         0.61187337
  Ewald energy   TEWEN  =      6596.92229518
  -Hartree energ DENC   =     -8293.43983022
  -exchange      EXHF   =         0.00000000
  -V(xc)+E(xc)   XCENC  =       143.95655623
  PAW double counting   =     18071.65160552   -18031.18812545
  entropy T*S    EENTRO =        -0.00000000
  eigenvalues    EBANDS =      -722.85972342
  atomic energy  EATOM  =      2121.00121096
  ---------------------------------------------------
  free energy    TOTEN  =      -113.34413784 eV

  energy without entropy =     -113.34413784  energy(sigma->0) =     -113.34413784


--------------------------------------------------------------------------------------------------------




--------------------------------------- Iteration      1(  15)  ---------------------------------------


    POTLOK:  cpu time     16.5202: real time     16.5245
    SETDIJ:  cpu time      0.0672: real time      0.0672
    TRIAL :  cpu time      0.4508: real time      0.4508
    CORREC:  cpu time     20.0348: real time     20.0403
    CHARGE:  cpu time      3.3884: real time      3.3895
    --------------------------------------------
      LOOP:  cpu time     40.4920: real time     40.5031

 eigenvalue-minimisations  :     0
 total energy-change (2. order) :-0.1026810E-02  (-0.4125678E-03)
 number of electron      56.0000000 magnetization 
 augmentation part       -0.0902891 magnetization 

 Free energy of the ion-electron system (eV)
  ---------------------------------------------------
  alpha Z        PSCENC =         0.61187337
  Ewald energy   TEWEN  =      6596.92229518
  -Hartree energ DENC   =     -8293.40630514
  -exchange      EXHF   =         0.00000000
  -V(xc)+E(xc)   XCENC  =       143.95617921
  PAW double counting   =     18107.37288357   -18066.90797756
  entropy T*S    EENTRO =        -0.00000000
  eigenvalues    EBANDS =      -722.89532423
  atomic energy  EATOM  =      2121.00121096
  ---------------------------------------------------
  free energy    TOTEN  =      -113.34516465 eV

  energy without entropy =     -113.34516465  energy(sigma->0) =     -113.34516465


--------------------------------------------------------------------------------------------------------




--------------------------------------- Iteration      1(  16)  ---------------------------------------


    POTLOK:  cpu time     16.5777: real time     16.5826
    SETDIJ:  cpu time      0.0669: real time      0.0669
    TRIAL :  cpu time      0.4511: real time      0.4512
    CORREC:  cpu time     20.3944: real time     20.3996
    CHARGE:  cpu time      3.3865: real time      3.3876
    --------------------------------------------
      LOOP:  cpu time     40.8917: real time     40.9204

 eigenvalue-minimisations  :     0
 total energy-change (2. order) :-0.4131906E-03  (-0.1433222E-03)
 number of electron      56.0000000 magnetization 
 augmentation part       -0.0901382 magnetization 

 Free energy of the ion-electron system (eV)
  ---------------------------------------------------
  alpha Z        PSCENC =         0.61187337
  Ewald energy   TEWEN  =      6596.92229518
  -Hartree energ DENC   =     -8293.96526446
  -exchange      EXHF   =         0.00000000
  -V(xc)+E(xc)   XCENC  =       143.97267093
  PAW double counting   =     18117.38459770   -18076.91959961
  entropy T*S    EENTRO =        -0.00000000
  eigenvalues    EBANDS =      -722.35336191
  atomic energy  EATOM  =      2121.00121096
  ---------------------------------------------------
  free energy    TOTEN  =      -113.34557784 eV

  energy without entropy =     -113.34557784  energy(sigma->0) =     -113.34557784


--------------------------------------------------------------------------------------------------------




--------------------------------------- Iteration      1(  17)  ---------------------------------------


    POTLOK:  cpu time     16.4827: real time     16.4872
    SETDIJ:  cpu time      0.0671: real time      0.0671
    TRIAL :  cpu time      0.4502: real time      0.4505
    CORREC:  cpu time     20.0620: real time     20.0671
    CHARGE:  cpu time      3.3872: real time      3.3886
    --------------------------------------------
      LOOP:  cpu time     40.4621: real time     40.4918

 eigenvalue-minimisations  :     0
 total energy-change (2. order) :-0.1440530E-03  (-0.5016270E-04)
 number of electron      56.0000000 magnetization 
 augmentation part       -0.0900801 magnetization 

 Free energy of the ion-electron system (eV)
  ---------------------------------------------------
  alpha Z        PSCENC =         0.61187337
  Ewald energy   TEWEN  =      6596.92229518
  -Hartree energ DENC   =     -8293.88945792
  -exchange      EXHF   =         0.00000000
  -V(xc)+E(xc)   XCENC  =       143.97289177
  PAW double counting   =     18118.83595058   -18078.36999815
  entropy T*S    EENTRO =        -0.00000000
  eigenvalues    EBANDS =      -722.43048768
  atomic energy  EATOM  =      2121.00121096
  ---------------------------------------------------
  free energy    TOTEN  =      -113.34572189 eV

  energy without entropy =     -113.34572189  energy(sigma->0) =     -113.34572189


--------------------------------------------------------------------------------------------------------




--------------------------------------- Iteration      1(  18)  ---------------------------------------


    POTLOK:  cpu time     16.6156: real time     16.6201
    SETDIJ:  cpu time      0.0670: real time      0.0670
    TRIAL :  cpu time      0.4516: real time      0.4516
    CORREC:  cpu time     19.9988: real time     20.0048
    CHARGE:  cpu time      3.3825: real time      3.3843
    --------------------------------------------
      LOOP:  cpu time     40.5479: real time     40.5603

 eigenvalue-minimisations  :     0
 total energy-change (2. order) :-0.5041160E-04  (-0.1761085E-04)
 number of electron      56.0000000 magnetization 
 augmentation part       -0.0900861 magnetization 

 Free energy of the ion-electron system (eV)
  ---------------------------------------------------
  alpha Z        PSCENC =         0.61187337
  Ewald energy   TEWEN  =      6596.92229518
  -Hartree energ DENC   =     -8293.89759901
  -exchange      EXHF   =         0.00000000
  -V(xc)+E(xc)   XCENC  =       143.97395395
  PAW double counting   =     18119.09093110   -18078.62460110
  entropy T*S    EENTRO =        -0.00000000
  eigenvalues    EBANDS =      -722.42383675
  atomic energy  EATOM  =      2121.00121096
  ---------------------------------------------------
  free energy    TOTEN  =      -113.34577230 eV

  energy without entropy =     -113.34577230  energy(sigma->0) =     -113.34577230


--------------------------------------------------------------------------------------------------------




--------------------------------------- Iteration      1(  19)  ---------------------------------------


    POTLOK:  cpu time     16.5539: real time     16.5587
    SETDIJ:  cpu time      0.0672: real time      0.0674
    TRIAL :  cpu time      0.4514: real time      0.4514
    CORREC:  cpu time     20.1013: real time     20.1074
    CHARGE:  cpu time      3.3779: real time      3.3790
    --------------------------------------------
      LOOP:  cpu time     40.5656: real time     40.5967

 eigenvalue-minimisations  :     0
 total energy-change (2. order) :-0.1760339E-04  (-0.6250522E-05)
 number of electron      56.0000000 magnetization 
 augmentation part       -0.0901123 magnetization 

 Free energy of the ion-electron system (eV)
  ---------------------------------------------------
  alpha Z        PSCENC =         0.61187337
  Ewald energy   TEWEN  =      6596.92229518
  -Hartree energ DENC   =     -8293.87156397
  -exchange      EXHF   =         0.00000000
  -V(xc)+E(xc)   XCENC  =       143.97350230
  PAW double counting   =     18119.03516477   -18078.56867574
  entropy T*S    EENTRO =        -0.00000000
  eigenvalues    EBANDS =      -722.44959677
  atomic energy  EATOM  =      2121.00121096
  ---------------------------------------------------
  free energy    TOTEN  =      -113.34578990 eV

  energy without entropy =     -113.34578990  energy(sigma->0) =     -113.34578990


--------------------------------------------------------------------------------------------------------




--------------------------------------- Iteration      1(  20)  ---------------------------------------


    POTLOK:  cpu time     16.4626: real time     16.4669
    SETDIJ:  cpu time      0.0671: real time      0.0671
    TRIAL :  cpu time      0.4505: real time      0.4505
    CORREC:  cpu time     20.0948: real time     20.1017
    CHARGE:  cpu time      3.3817: real time      3.3832
    --------------------------------------------
      LOOP:  cpu time     40.4700: real time     40.5004

 eigenvalue-minimisations  :     0
 total energy-change (2. order) :-0.6177812E-05  (-0.2498648E-05)
 number of electron      56.0000000 magnetization 
 augmentation part       -0.0901306 magnetization 

 Free energy of the ion-electron system (eV)
  ---------------------------------------------------
  alpha Z        PSCENC =         0.61187337
  Ewald energy   TEWEN  =      6596.92229518
  -Hartree energ DENC   =     -8293.81210729
  -exchange      EXHF   =         0.00000000
  -V(xc)+E(xc)   XCENC  =       143.97207082
  PAW double counting   =     18117.94433111   -18077.47779347
  entropy T*S    EENTRO =        -0.00000000
  eigenvalues    EBANDS =      -722.50767677
  atomic energy  EATOM  =      2121.00121096
  ---------------------------------------------------
  free energy    TOTEN  =      -113.34579608 eV

  energy without entropy =     -113.34579608  energy(sigma->0) =     -113.34579608


--------------------------------------------------------------------------------------------------------




--------------------------------------- Iteration      1(  21)  ---------------------------------------


    POTLOK:  cpu time     16.5192: real time     16.5239
    SETDIJ:  cpu time      0.0671: real time      0.0671
    TRIAL :  cpu time      0.4509: real time      0.4510
    CORREC:  cpu time     19.9655: real time     19.9710
    CHARGE:  cpu time      3.4108: real time      3.4120
    --------------------------------------------
      LOOP:  cpu time     40.4305: real time     40.4642

 eigenvalue-minimisations  :     0
 total energy-change (2. order) :-0.2340505E-05  (-0.8019286E-06)
 number of electron      56.0000000 magnetization 
 augmentation part       -0.0901490 magnetization 

 Free energy of the ion-electron system (eV)
  ---------------------------------------------------
  alpha Z        PSCENC =         0.61187337
  Ewald energy   TEWEN  =      6596.92229518
  -Hartree energ DENC   =     -8293.82705413
  -exchange      EXHF   =         0.00000000
  -V(xc)+E(xc)   XCENC  =       143.97237610
  PAW double counting   =     18116.16807777   -18075.70169966
  entropy T*S    EENTRO =        -0.00000000
  eigenvalues    EBANDS =      -722.49287801
  atomic energy  EATOM  =      2121.00121096
  ---------------------------------------------------
  free energy    TOTEN  =      -113.34579842 eV

  energy without entropy =     -113.34579842  energy(sigma->0) =     -113.34579842


--------------------------------------------------------------------------------------------------------




--------------------------------------- Iteration      1(  22)  ---------------------------------------


    POTLOK:  cpu time     16.5678: real time     16.5726
    SETDIJ:  cpu time      0.0686: real time      0.0686
    TRIAL :  cpu time      0.4512: real time      0.4516
    CORREC:  cpu time     20.0905: real time     20.0964
    CHARGE:  cpu time      3.3855: real time      3.3869
    --------------------------------------------
      LOOP:  cpu time     40.5817: real time     40.6067

 eigenvalue-minimisations  :     0
 total energy-change (2. order) :-0.7749968E-06  (-0.4261008E-06)
 number of electron      56.0000000 magnetization 
 augmentation part       -0.0901553 magnetization 

 Free energy of the ion-electron system (eV)
  ---------------------------------------------------
  alpha Z        PSCENC =         0.61187337
  Ewald energy   TEWEN  =      6596.92229518
  -Hartree energ DENC   =     -8293.79087502
  -exchange      EXHF   =         0.00000000
  -V(xc)+E(xc)   XCENC  =       143.97134141
  PAW double counting   =     18115.32651052   -18074.86010392
  entropy T*S    EENTRO =        -0.00000000
  eigenvalues    EBANDS =      -722.52805169
  atomic energy  EATOM  =      2121.00121096
  ---------------------------------------------------
  free energy    TOTEN  =      -113.34579920 eV

  energy without entropy =     -113.34579920  energy(sigma->0) =     -113.34579920


--------------------------------------------------------------------------------------------------------




--------------------------------------- Iteration      1(  23)  ---------------------------------------


    POTLOK:  cpu time     16.5253: real time     16.5295
    SETDIJ:  cpu time      0.0671: real time      0.0671
    TRIAL :  cpu time      0.4517: real time      0.4518
    CORREC:  cpu time     20.1063: real time     20.1116
    CHARGE:  cpu time      3.3936: real time      3.3950
    --------------------------------------------
      LOOP:  cpu time     40.5748: real time     40.5858

 eigenvalue-minimisations  :     0
 total energy-change (2. order) :-0.3519508E-06  (-0.1205083E-06)
 number of electron      56.0000000 magnetization 
 augmentation part       -0.0901598 magnetization 

 Free energy of the ion-electron system (eV)
  ---------------------------------------------------
  alpha Z        PSCENC =         0.61187337
  Ewald energy   TEWEN  =      6596.92229518
  -Hartree energ DENC   =     -8293.81838822
  -exchange      EXHF   =         0.00000000
  -V(xc)+E(xc)   XCENC  =       143.97188178
  PAW double counting   =     18114.91583578   -18074.44950358
  entropy T*S    EENTRO =        -0.00000000
  eigenvalues    EBANDS =      -722.50100482
  atomic energy  EATOM  =      2121.00121096
  ---------------------------------------------------
  free energy    TOTEN  =      -113.34579955 eV

  energy without entropy =     -113.34579955  energy(sigma->0) =     -113.34579955


--------------------------------------------------------------------------------------------------------




--------------------------------------- Iteration      1(  24)  ---------------------------------------


    POTLOK:  cpu time     16.5225: real time     16.5266
    SETDIJ:  cpu time      0.0669: real time      0.0669
    TRIAL :  cpu time      0.4492: real time      0.4496
    CORREC:  cpu time     20.0587: real time     20.0640
    CHARGE:  cpu time      3.4303: real time      3.4316
    --------------------------------------------
      LOOP:  cpu time     40.5407: real time     40.5706

 eigenvalue-minimisations  :     0
 total energy-change (2. order) :-0.1191656E-06  (-0.8046333E-07)
 number of electron      56.0000000 magnetization 
 augmentation part       -0.0901601 magnetization 

 Free energy of the ion-electron system (eV)
  ---------------------------------------------------
  alpha Z        PSCENC =         0.61187337
  Ewald energy   TEWEN  =      6596.92229518
  -Hartree energ DENC   =     -8293.80682717
  -exchange      EXHF   =         0.00000000
  -V(xc)+E(xc)   XCENC  =       143.97156289
  PAW double counting   =     18115.00852174   -18074.54215815
  entropy T*S    EENTRO =        -0.00000000
  eigenvalues    EBANDS =      -722.51227849
  atomic energy  EATOM  =      2121.00121096
  ---------------------------------------------------
  free energy    TOTEN  =      -113.34579967 eV

  energy without entropy =     -113.34579967  energy(sigma->0) =     -113.34579967


--------------------------------------------------------------------------------------------------------




--------------------------------------- Iteration      1(  25)  ---------------------------------------


    POTLOK:  cpu time     16.5328: real time     16.5372
    SETDIJ:  cpu time      0.0671: real time      0.0671
    TRIAL :  cpu time      0.4522: real time      0.4522
    CORREC:  cpu time     20.0710: real time     20.0763
    EDDIAG:  cpu time      0.1969: real time      0.1973
    CHARGE:  cpu time      3.3782: real time      3.3796
    --------------------------------------------
      LOOP:  cpu time     40.7143: real time     40.7403

 eigenvalue-minimisations  :     0
 total energy-change (2. order) :-0.7898416E-07  (-0.4778296E-07)
 number of electron      56.0000000 magnetization 
 augmentation part       -0.0901580 magnetization 

 Free energy of the ion-electron system (eV)
  ---------------------------------------------------
  alpha Z        PSCENC =         0.61187337
  Ewald energy   TEWEN  =      6596.92229518
  -Hartree energ DENC   =     -8293.80388924
  -exchange      EXHF   =         0.00000000
  -V(xc)+E(xc)   XCENC  =       143.97151224
  PAW double counting   =     18115.22215476   -18074.75577465
  entropy T*S    EENTRO =        -0.00000000
  eigenvalues    EBANDS =      -722.51518238
  atomic energy  EATOM  =      2121.00121096
  ---------------------------------------------------
  free energy    TOTEN  =      -113.34579975 eV

  energy without entropy =     -113.34579975  energy(sigma->0) =     -113.34579975


--------------------------------------------------------------------------------------------------------


  average scaling for gradient   0.9683


 average (electrostatic) potential at core
  the test charge radii are     0.5770  0.4325  0.5902
  (the norm of the test charge is              1.0000)
       1 -88.3004       2 -88.2965       3 -88.2944       4 -88.3003       5 -88.2977
       6 -88.2940       7 -46.6031       8 -46.6050       9 -46.6028      10 -46.5972
      11 -46.5994      12 -46.5955      13 -46.6037      14 -46.6020      15 -46.6014
      16 -46.6006      17 -46.5972      18 -46.5987      19-103.9926      20-103.9962
      21-103.9915      22-103.9899



 E-fermi :  -5.2154     XC(G=0):  -0.2029     alpha+bet : -0.0850

 Fermi energy:        -5.2154167605

 k-point     1 :       0.0000    0.0000    0.0000
  band No.  band energies     occupation 
      1     -25.4572      2.00000
      2     -22.4219      2.00000
      3     -22.4203      2.00000
      4     -22.4191      2.00000
      5     -17.6010      2.00000
      6     -17.6009      2.00000
      7     -16.2103      2.00000
      8     -16.2099      2.00000
      9     -16.2095      2.00000
     10     -14.0440      2.00000
     11     -12.1811      2.00000
     12     -12.1802      2.00000
     13     -12.1801      2.00000
     14     -11.7559      2.00000
     15     -11.7556      2.00000
     16     -11.7545      2.00000
     17      -9.5578      2.00000
     18      -9.5570      2.00000
     19      -9.5566      2.00000
     20      -9.3759      2.00000
     21      -9.3757      2.00000
     22      -8.9529      2.00000
     23      -8.9512      2.00000
     24      -8.9509      2.00000
     25      -8.7271      2.00000
     26      -5.2846      2.00000
     27      -5.2822      2.00000
     28      -5.2803      2.00000
     29      -1.1397      0.00000
     30      -0.5574      0.00000
     31      -0.5566      0.00000
     32      -0.5564      0.00000
     33      -0.0526      0.00000
     34      -0.0507      0.00000
     35      -0.0467      0.00000
     36       0.0766      0.00000
     37       0.0774      0.00000
     38       0.0824      0.00000
     39       0.3275      0.00000
     40       0.4824      0.00000


--------------------------------------------------------------------------------------------------------


 soft charge-density along one line, spin component           1
         0         1         2         3         4         5         6         7         8         9
 total charge-density along one line

 pseudopotential strength for first ion, spin component:           1
 12.757  21.472   0.004   0.006  -0.005   0.006   0.011  -0.009
 21.472  36.138   0.006   0.010  -0.008   0.011   0.018  -0.015
  0.004   0.006  -3.205   0.003   0.001  -5.747   0.005   0.002
  0.006   0.010   0.003  -3.202   0.002   0.005  -5.741   0.004
 -0.005  -0.008   0.001   0.002  -3.199   0.002   0.004  -5.735
  0.006   0.011  -5.747   0.005   0.002 -10.282   0.009   0.004
  0.011   0.018   0.005  -5.741   0.004   0.009 -10.271   0.007
 -0.009  -0.015   0.002   0.004  -5.735   0.004   0.007 -10.260
 total augmentation occupancy for first ion, spin component:           1
  6.699  -2.253   0.120   0.208  -0.169  -0.077  -0.133   0.109
 -2.253   0.809  -0.096  -0.166   0.135   0.051   0.089  -0.073
  0.120  -0.096   5.343  -0.053  -0.006  -1.756   0.077   0.026
  0.208  -0.166  -0.053   5.281  -0.011   0.077  -1.668   0.044
 -0.169   0.135  -0.006  -0.011   5.243   0.026   0.044  -1.588
 -0.077   0.051  -1.756   0.077   0.026   0.596  -0.047  -0.017
 -0.133   0.089   0.077  -1.668   0.044  -0.047   0.541  -0.029
  0.109  -0.073   0.026   0.044  -1.588  -0.017  -0.029   0.490


------------------------ aborting loop because EDIFF is reached ----------------------------------------


    FORLOC:  cpu time      0.0417: real time      0.0417
    FORNL :  cpu time      0.0555: real time      0.0556
    FORCOR:  cpu time     16.5519: real time     16.5562
    OFIELD:  cpu time      0.0051: real time      0.0054

 VOLUME and BASIS-vectors are now :
 -----------------------------------------------------------------------------
  energy-cutoff  :     1000.00
  volume of cell :    15625.00
      direct lattice vectors                 reciprocal lattice vectors
    25.000000000  0.000000000  0.000000000     0.040000000  0.000000000  0.000000000
     0.000000000 25.000000000  0.000000000     0.000000000  0.040000000  0.000000000
     0.000000000  0.000000000 25.000000000     0.000000000  0.000000000  0.040000000

  length of vectors
    25.000000000 25.000000000 25.000000000     0.040000000  0.040000000  0.040000000


 FORCES acting on ions:
    Electron-Ion                     Ewald-Force                    Non-Local-Force
 -----------------------------------------------------------------------------------------------
   -.183E+03 0.130E+03 0.225E+03   0.187E+03 -.132E+03 -.228E+03   -.296E+01 0.209E+01 0.362E+01
   0.183E+03 0.259E+03 0.329E-01   -.187E+03 -.264E+03 0.411E-03   0.295E+01 0.417E+01 -.678E-19
   -.183E+03 0.130E+03 -.224E+03   0.187E+03 -.132E+03 0.228E+03   -.296E+01 0.209E+01 -.362E+01
   0.183E+03 -.130E+03 0.225E+03   -.187E+03 0.132E+03 -.228E+03   0.295E+01 -.209E+01 0.362E+01
   -.183E+03 -.259E+03 0.230E-01   0.186E+03 0.264E+03 -.100E-01   -.296E+01 -.418E+01 0.163E-18
   0.183E+03 -.130E+03 -.225E+03   -.187E+03 0.132E+03 0.228E+03   0.295E+01 -.209E+01 -.362E+01
   -.101E+03 0.200E+02 0.346E+02   0.107E+03 -.201E+02 -.348E+02   -.578E+01 0.905E-01 0.157E+00
   -.400E+01 0.543E+02 0.941E+02   0.229E+01 -.570E+02 -.988E+02   0.176E+01 0.276E+01 0.477E+01
   0.526E+02 0.743E+02 0.595E+02   -.545E+02 -.771E+02 -.640E+02   0.201E+01 0.285E+01 0.462E+01
   0.526E+02 0.743E+02 -.594E+02   -.545E+02 -.771E+02 0.640E+02   0.201E+01 0.285E+01 -.462E+01
   -.101E+03 0.200E+02 -.346E+02   0.107E+03 -.201E+02 0.348E+02   -.578E+01 0.905E-01 -.157E+00
   -.400E+01 0.543E+02 -.941E+02   0.229E+01 -.570E+02 0.988E+02   0.176E+01 0.276E+01 -.477E+01
   0.526E+02 0.143E+02 0.941E+02   -.545E+02 -.168E+02 -.987E+02   0.201E+01 0.258E+01 0.477E+01
   0.526E+02 -.886E+02 0.346E+02   -.545E+02 0.939E+02 -.348E+02   0.202E+01 -.542E+01 0.156E+00
   -.101E+03 -.400E+02 0.575E-02   0.107E+03 0.402E+02 -.113E-03   -.579E+01 -.181E+00 -.847E-20
   -.400E+01 -.109E+03 0.575E-02   0.229E+01 0.114E+03 -.135E-03   0.176E+01 -.551E+01 0.203E-19
   0.526E+02 0.143E+02 -.941E+02   -.545E+02 -.168E+02 0.987E+02   0.201E+01 0.258E+01 -.477E+01
   0.526E+02 -.886E+02 -.346E+02   -.545E+02 0.939E+02 0.348E+02   0.202E+01 -.542E+01 -.156E+00
   -.128E+03 0.362E+03 0.595E-01   0.138E+03 -.392E+03 0.746E-04   -.104E+02 0.294E+02 0.352E-18
   -.128E+03 -.181E+03 0.314E+03   0.138E+03 0.196E+03 -.339E+03   -.104E+02 -.147E+02 0.255E+02
   0.384E+03 -.600E-01 0.595E-01   -.415E+03 0.659E-01 0.107E-01   0.312E+02 -.741E-02 0.190E-18
   -.128E+03 -.181E+03 -.314E+03   0.138E+03 0.196E+03 0.339E+03   -.104E+02 -.147E+02 -.255E+02
 -----------------------------------------------------------------------------------------------
   0.231E-01 0.915E-02 0.514E+00   -.284E-13 -.853E-13 0.000E+00   -.227E-01 -.923E-02 -.355E-14


 POSITION                                       TOTAL-FORCE (eV/Angst)
 -----------------------------------------------------------------------------------
     13.18860     11.55265     11.30635         0.316580     -0.227626     -0.392622
     11.23960     10.86365     12.49995        -0.324339     -0.453467     -0.000000
     13.18860     11.55265     13.69355         0.316580     -0.227626      0.392622
     11.23970     12.93085     11.30625        -0.325400      0.225926     -0.387473
     13.18860     13.62005     12.49995         0.315925      0.451919     -0.000000
     11.23970     12.93085     13.69375        -0.325400      0.225926      0.387473
     14.29000     11.54825     11.29875        -0.108608     -0.007201     -0.011907
     12.82950     11.03195     10.40445         0.051182      0.050804      0.088265
     10.86810     10.33855     11.60575         0.031350      0.043184      0.097310
     10.86810     10.33855     13.39415         0.031350      0.043184     -0.097310
     14.29000     11.54825     13.70115        -0.108608     -0.007201      0.011907
     12.82950     11.03195     14.59545         0.051182      0.050804     -0.088265
     10.86810     12.41885     10.40445         0.032501      0.063927      0.087816
     10.86810     13.96775     11.29875         0.031971     -0.105334     -0.012743
     14.29000     13.62885     12.49995        -0.108732      0.013802     -0.000000
     12.82950     14.66145     12.49995         0.050741     -0.101664     -0.000000
     10.86810     12.41885     14.59555         0.032501      0.063927     -0.087816
     10.86810     13.96775     13.70115         0.031971     -0.105334      0.012743
     12.71540     10.82355     12.49995         0.133013     -0.364248     -0.000000
     12.71550     12.95085     11.27165         0.131128      0.183828     -0.315911
     10.71000     12.24185     12.49995        -0.388015     -0.001355      0.000000
     12.71550     12.95085     13.72815         0.131128      0.183828      0.315911
 -----------------------------------------------------------------------------------
    total drift:                                0.000444     -0.000077      0.513735


--------------------------------------------------------------------------------------------------------



  FREE ENERGIE OF THE ION-ELECTRON SYSTEM (eV)
  ---------------------------------------------------
  free  energy   TOTEN  =      -113.34579975 eV

  energy  without entropy=     -113.34579975  energy(sigma->0) =     -113.34579975



--------------------------------------------------------------------------------------------------------


    POTLOK:  cpu time     16.6823: real time     16.6868


--------------------------------------------------------------------------------------------------------


 stress matrix after NEB project (eV)
      0.00000      0.00000      0.00000
      0.00000      0.00000      0.00000
      0.00000      0.00000      0.00000
  FORCES: max atom, RMS     0.557519    0.343356
  FORCE total and by dimension    1.610484    0.453467
  Stress total and by dimension    0.000000    0.000000
     LOOP+:  cpu time    871.4160: real time    871.9888
    4ORBIT:  cpu time      0.0000: real time      0.0000

 total amount of memory used by VASP MPI-rank0   102605. kBytes
=======================================================================

   base      :      30000. kBytes
   nonl-proj :       2389. kBytes
   fftplans  :      21917. kBytes
   grid      :      46189. kBytes
   one-center:          1. kBytes
   wavefun   :       2109. kBytes

  
  
 General timing and accounting informations for this job:
 ========================================================
  
                  Total CPU time used (sec):      925.238
                            User time (sec):      864.626
                          System time (sec):       60.612
                         Elapsed time (sec):      944.040
  
                   Maximum memory used (kb):      837740.
                   Average memory used (kb):          N/A
  
                          Minor page faults:      3564970
                          Major page faults:          338
                 Voluntary context switches:        11496
