 vasp.6.4.1 05Apr23 (build Jun  6 2023 14:46:38) gamma-only                      
 executed on        HPECrayEX_GCC date 2024.08.22  12:00:26
 running  512 mpi-ranks, with    1 threads/rank, on    4 nodes
 distrk:  each k-point on  256 cores,    2 groups
 distr:  one band on NCORE=  32 cores,    8 groups


--------------------------------------------------------------------------------------------------------


 INCAR:
   ALGO = Conjugate
   KPAR = 2
   NCORE = 32
   PREC = Accurate
   EDIFF = 1E-7
   ENCUT = 1000
   ISMEAR = 0
   SIGMA = 0.01
   ISIF = 0
   GGA = PE
   IVDW = 202
   LVDWEXPANSION = .TRUE.
   LWAVE = .FALSE.
   LCHARG = .FALSE.
   SYMPREC = 1E-7
   LWAVE = .FALSE.
   LCHARG = .FALSE.

 POTCAR:    PAW_PBE C_h 06Feb2004                 
 POTCAR:    PAW_PBE H_h 06Feb2004                 
 POTCAR:    PAW_PBE N_h 06Feb2004                 
 POTCAR:    PAW_PBE C_h 06Feb2004                 
   VRHFIN =C: s2p2                                                                                  
   LEXCH  = PE                                                                                      
   EATOM  =   147.1560 eV,   10.8157 Ry                                                             
                                                                                                    
   TITEL  = PAW_PBE C_h 06Feb2004                                                                   
   LULTRA =        F    use ultrasoft PP ?                                                          
   IUNSCR =        1    unscreen: 0-lin 1-nonlin 2-no                                               
   RPACOR =    0.800    partial core radius                                                         
   POMASS =   12.011; ZVAL   =    4.000    mass and valenz                                          
   RCORE  =    1.100    outmost cutoff radius                                                       
   RWIGS  =    1.630; RWIGS  =    0.863    wigner-seitz radius (au A)                               
   ENMAX  =  700.000; ENMIN  =  500.000 eV                                                          
   ICORE  =        2    local potential                                                             
   LCOR   =        T    correct aug charges                                                         
   LPAW   =        T    paw PP                                                                      
   EAUG   =  946.768                                                                                
   DEXC   =    0.000                                                                                
   RMAX   =    1.128    core radius for proj-oper                                                   
   RAUG   =    1.300    factor for augmentation sphere                                              
   RDEP   =    1.162    radius for radial grids                                                     
   RDEPT  =    1.088    core radius for aug-charge                                                  
                                                                                                    
   Atomic configuration                                                                             
    4 entries                                                                                       
     n  l   j            E        occ.                                                              
     1  0  0.50      -273.3789   2.0000                                                             
     2  0  0.50       -13.7508   2.0000                                                             
     2  1  0.50        -5.2854   2.0000                                                             
     3  2  1.50        -5.4423   0.0000                                                             
   Description                                                                                      
     l       E           TYP  RCUT    TYP  RCUT                                                     
     0    -13.7508458     23  1.100                                                                 
     0     -8.2022199     23  1.100                                                                 
     1     -5.2854383     23  1.100                                                                 
     1      1.1560700     23  1.100                                                                 
     2     -5.4423304      7  1.100                                                                 
  local pseudopotential read in
  partial core-charges read in
  partial kinetic energy density read in
  atomic valenz-charges read in
  non local Contribution for L=           0  read in
    real space projection operators read in
  non local Contribution for L=           0  read in
    real space projection operators read in
  non local Contribution for L=           1  read in
    real space projection operators read in
  non local Contribution for L=           1  read in
    real space projection operators read in
    PAW grid and wavefunctions read in

   number of l-projection  operators is LMAX  =           4
   number of lm-projection operators is LMMAX =           8

 POTCAR:    PAW_PBE H_h 06Feb2004                 
   VRHFIN =H: ultrasoft test                                                                        
   LEXCH  = PE                                                                                      
   EATOM  =    12.4884 eV,    0.9179 Ry                                                             
                                                                                                    
   TITEL  = PAW_PBE H_h 06Feb2004                                                                   
   LULTRA =        F    use ultrasoft PP ?                                                          
   IUNSCR =        0    unscreen: 0-lin 1-nonlin 2-no                                               
   RPACOR =    0.000    partial core radius                                                         
   POMASS =    1.000; ZVAL   =    1.000    mass and valenz                                          
   RCORE  =    0.800    outmost cutoff radius                                                       
   RWIGS  =    0.700; RWIGS  =    0.370    wigner-seitz radius (au A)                               
   ENMAX  =  700.000; ENMIN  =  350.000 eV                                                          
   RCLOC  =    0.701    cutoff for local pot                                                        
   LCOR   =        T    correct aug charges                                                         
   LPAW   =        T    paw PP                                                                      
   EAUG   = 1000.000                                                                                
   RMAX   =    0.819    core radius for proj-oper                                                   
   RAUG   =    1.000    factor for augmentation sphere                                              
   RDEP   =    0.817    radius for radial grids                                                     
   RDEPT  =    0.817    core radius for aug-charge                                                  
                                                                                                    
   Atomic configuration                                                                             
    2 entries                                                                                       
     n  l   j            E        occ.                                                              
     1  0  0.50        -6.4927   1.0000                                                             
     2  1  0.50        -3.4015   0.0000                                                             
   Description                                                                                      
     l       E           TYP  RCUT    TYP  RCUT                                                     
     0     -6.4927493     23  0.800                                                                 
     0      6.8029130     23  0.800                                                                 
     1     -6.8029130     23  0.800                                                                 
  local pseudopotential read in
  atomic valenz-charges read in
  non local Contribution for L=           0  read in
    real space projection operators read in
  non local Contribution for L=           0  read in
    real space projection operators read in
  non local Contribution for L=           1  read in
    real space projection operators read in
    PAW grid and wavefunctions read in

   number of l-projection  operators is LMAX  =           3
   number of lm-projection operators is LMMAX =           5

 POTCAR:    PAW_PBE N_h 06Feb2004                 
   VRHFIN =N: s2p3                                                                                  
   LEXCH  = PE                                                                                      
   EATOM  =   264.5486 eV,   19.4438 Ry                                                             
                                                                                                    
   TITEL  = PAW_PBE N_h 06Feb2004                                                                   
   LULTRA =        F    use ultrasoft PP ?                                                          
   IUNSCR =        1    unscreen: 0-lin 1-nonlin 2-no                                               
   RPACOR =    0.800    partial core radius                                                         
   POMASS =   14.001; ZVAL   =    5.000    mass and valenz                                          
   RCORE  =    1.100    outmost cutoff radius                                                       
   RWIGS  =    1.480; RWIGS  =    0.783    wigner-seitz radius (au A)                               
   ENMAX  =  700.000; ENMIN  =  500.000 eV                                                          
   ICORE  =        2    local potential                                                             
   LCOR   =        T    correct aug charges                                                         
   LPAW   =        T    paw PP                                                                      
   EAUG   =  904.640                                                                                
   DEXC   =    0.000                                                                                
   RMAX   =    1.127    core radius for proj-oper                                                   
   RAUG   =    1.300    factor for augmentation sphere                                              
   RDEP   =    1.115    radius for radial grids                                                     
   RDEPT  =    1.106    core radius for aug-charge                                                  
                                                                                                    
   Atomic configuration                                                                             
    4 entries                                                                                       
     n  l   j            E        occ.                                                              
     1  0  0.50      -384.7179   2.0000                                                             
     2  0  0.50       -18.5828   2.0000                                                             
     2  1  0.50        -7.0898   3.0000                                                             
     3  2  1.50        -6.8029   0.0000                                                             
   Description                                                                                      
     l       E           TYP  RCUT    TYP  RCUT                                                     
     0    -18.5828117     23  1.100                                                                 
     0    -15.0750597     23  1.100                                                                 
     1     -7.0897851     23  1.100                                                                 
     1     -1.9663412     23  1.100                                                                 
     2     -6.8029130      7  1.100                                                                 
  local pseudopotential read in
  partial core-charges read in
  partial kinetic energy density read in
  kinetic energy density of atom read in
  atomic valenz-charges read in
  non local Contribution for L=           0  read in
    real space projection operators read in
  non local Contribution for L=           0  read in
    real space projection operators read in
  non local Contribution for L=           1  read in
    real space projection operators read in
  non local Contribution for L=           1  read in
    real space projection operators read in
    PAW grid and wavefunctions read in

   number of l-projection  operators is LMAX  =           4
   number of lm-projection operators is LMMAX =           8

 -----------------------------------------------------------------------------
|                                                                             |
|               ----> ADVICE to this user running VASP <----                  |
|                                                                             |
|     You have a (more or less) 'large supercell' and for larger cells it     |
|     might be more efficient to use real-space projection operators.         |
|     Therefore, try LREAL= Auto in the INCAR file.                           |
|     Mind: For very accurate calculation, you might also keep the            |
|     reciprocal projection scheme (i.e. LREAL=.FALSE.).                      |
|                                                                             |
 -----------------------------------------------------------------------------

  PAW_PBE C_h 06Feb2004                 :
 energy of atom  1       EATOM= -147.1560
 kinetic energy error for atom=    0.0031 (will be added to EATOM!!)
  PAW_PBE H_h 06Feb2004                 :
 energy of atom  2       EATOM=  -12.4884
 kinetic energy error for atom=    0.0006 (will be added to EATOM!!)
  PAW_PBE N_h 06Feb2004                 :
 energy of atom  3       EATOM= -264.5486
 kinetic energy error for atom=    0.0081 (will be added to EATOM!!)


 POSCAR:  C  H  N
  positions in cartesian coordinates
  No initial velocities read in
 exchange correlation table for  LEXCH =        8
   RHO(1)=    0.500       N(1)  =     2000
   RHO(2)=  100.500       N(2)  =     4000

 VTST: version 4.1, (05/19/21)

 CHAIN: initializing optimizer
 
 OPT: Using VASP Dynamics algorithm
 CHAIN: Read ICHAIN            0

 POSCAR:  C  H  N
  positions in cartesian coordinates
  No initial velocities read in



--------------------------------------------------------------------------------------------------------


 ion  position               nearest neighbor table
   1  0.528  0.462  0.452-   7 1.10   8 1.10  20 1.48  19 1.48
   2  0.450  0.435  0.500-   9 1.10  10 1.10  19 1.48  21 1.48
   3  0.528  0.462  0.548-  11 1.10  12 1.10  22 1.48  19 1.48
   4  0.450  0.517  0.452-  14 1.10  13 1.10  20 1.48  21 1.48
   5  0.528  0.545  0.500-  15 1.10  16 1.10  22 1.48  20 1.48
   6  0.450  0.517  0.548-  18 1.10  17 1.10  22 1.48  21 1.48
   7  0.572  0.462  0.452-   1 1.10
   8  0.513  0.441  0.416-   1 1.10
   9  0.435  0.414  0.464-   2 1.10
  10  0.435  0.414  0.536-   2 1.10
  11  0.572  0.462  0.548-   3 1.10
  12  0.513  0.441  0.584-   3 1.10
  13  0.435  0.497  0.416-   4 1.10
  14  0.435  0.559  0.452-   4 1.10
  15  0.572  0.545  0.500-   5 1.10
  16  0.513  0.586  0.500-   5 1.10
  17  0.435  0.497  0.584-   6 1.10
  18  0.435  0.559  0.548-   6 1.10
  19  0.509  0.433  0.500-   2 1.48   1 1.48   3 1.48
  20  0.509  0.518  0.451-   4 1.48   1 1.48   5 1.48
  21  0.428  0.490  0.500-   2 1.48   4 1.48   6 1.48
  22  0.509  0.518  0.549-   6 1.48   3 1.48   5 1.48

  LATTYP: Found a simple cubic cell.
 ALAT       =    25.0000000000
  
  Lattice vectors:
  
 A1 = (  25.0000000000,   0.0000000000,   0.0000000000)
 A2 = (   0.0000000000,  25.0000000000,   0.0000000000)
 A3 = (   0.0000000000,   0.0000000000,  25.0000000000)


Analysis of symmetry for initial positions (statically):
=====================================================================
 Subroutine PRICEL returns:
 Original cell was already a primitive cell.
 

 Routine SETGRP: Setting up the symmetry group for a 
 simple cubic supercell.


 Subroutine GETGRP returns: Found  1 space group operations
 (whereof  1 operations were pure point group operations)
 out of a pool of 48 trial point group operations.


The static configuration has the point symmetry C_1 .


Analysis of symmetry for dynamics (positions and initial velocities):
=====================================================================
 Subroutine PRICEL returns:
 Original cell was already a primitive cell.
 

 Routine SETGRP: Setting up the symmetry group for a 
 simple cubic supercell.


 Subroutine GETGRP returns: Found  1 space group operations
 (whereof  1 operations were pure point group operations)
 out of a pool of 48 trial point group operations.


The dynamic configuration has the point symmetry C_1 .


 Subroutine INISYM returns: Found  1 space group operations
 (whereof  1 operations are pure point group operations),
 and found     1 'primitive' translations


----------------------------------------------------------------------------------------

                                     Primitive cell                                     

  volume of cell :   15625.0000

  direct lattice vectors                    reciprocal lattice vectors
    25.000000000  0.000000000  0.000000000     0.040000000  0.000000000  0.000000000
     0.000000000 25.000000000  0.000000000     0.000000000  0.040000000  0.000000000
     0.000000000  0.000000000 25.000000000     0.000000000  0.000000000  0.040000000

  length of vectors
    25.000000000 25.000000000 25.000000000     0.040000000  0.040000000  0.040000000

  position of ions in fractional coordinates (direct lattice)
     0.527544000  0.462106000  0.452254000
     0.449584000  0.434546000  0.499998000
     0.527544000  0.462106000  0.547742000
     0.449588000  0.517234000  0.452250000
     0.527544000  0.544802000  0.499998000
     0.449588000  0.517234000  0.547750000
     0.571600000  0.461930000  0.451950000
     0.513180000  0.441278000  0.416178000
     0.434724000  0.413542000  0.464230000
     0.434724000  0.413542000  0.535766000
     0.571600000  0.461930000  0.548046000
     0.513180000  0.441278000  0.583818000
     0.434724000  0.496754000  0.416178000
     0.434724000  0.558710000  0.451950000
     0.571600000  0.545154000  0.499998000
     0.513180000  0.586458000  0.499998000
     0.434724000  0.496754000  0.583822000
     0.434724000  0.558710000  0.548046000
     0.508616000  0.432942000  0.499998000
     0.508620000  0.518034000  0.450866000
     0.428400000  0.489674000  0.499998000
     0.508620000  0.518034000  0.549126000

  ion indices of the primitive-cell ions
   primitive index   ion index
                 1           1
                 2           2
                 3           3
                 4           4
                 5           5
                 6           6
                 7           7
                 8           8
                 9           9
                10          10
                11          11
                12          12
                13          13
                14          14
                15          15
                16          16
                17          17
                18          18
                19          19
                20          20
                21          21
                22          22

----------------------------------------------------------------------------------------



 KPOINTS: auto                                    

Automatic generation of k-mesh.
 Grid dimensions read from file:
 generate k-points for:    1    1    1

 Generating k-lattice:

  Cartesian coordinates                     Fractional coordinates (reciprocal lattice)
     0.040000000  0.000000000  0.000000000     1.000000000  0.000000000  0.000000000
     0.000000000  0.040000000  0.000000000     0.000000000  1.000000000  0.000000000
     0.000000000  0.000000000  0.040000000     0.000000000  0.000000000  1.000000000

  Length of vectors
     0.040000000  0.040000000  0.040000000

  Shift w.r.t. Gamma in fractional coordinates (k-lattice)
     0.000000000  0.000000000  0.000000000

 
 Subroutine IBZKPT returns following result:
 ===========================================
 
 Found      1 irreducible k-points:
 
 Following reciprocal coordinates:
            Coordinates               Weight
  0.000000  0.000000  0.000000      1.000000
 
 Following cartesian coordinates:
            Coordinates               Weight
  0.000000  0.000000  0.000000      1.000000
 


--------------------------------------------------------------------------------------------------------




 Dimension of arrays:
   k-points           NKPTS =      1   k-points in BZ     NKDIM =      1   number of bands    NBANDS=     40
   number of dos      NEDOS =    301   number of ions     NIONS =     22
   non local maximal  LDIM  =      4   non local SUM 2l+1 LMDIM =      8
   total plane-waves  NPLWV = ******
   max r-space proj   IRMAX =      1   max aug-charges    IRDMAX=   9146
   dimension x,y,z NGX =   270 NGY =  270 NGZ =  270
   dimension x,y,z NGXF=   540 NGYF=  540 NGZF=  540
   support grid    NGXF=   540 NGYF=  540 NGZF=  540
   ions per type =               6  12   4
   NGX,Y,Z   is equivalent  to a cutoff of  17.95, 17.95, 17.95 a.u.
   NGXF,Y,Z  is equivalent  to a cutoff of  35.91, 35.91, 35.91 a.u.

 SYSTEM =  unknown system                          
 POSCAR =   C  H  N                                

 Startparameter for this run:
   NWRITE =      2    write-flag & timer
   PREC   = accura    normal or accurate (medium, high low for compatibility)
   ISTART =      0    job   : 0-new  1-cont  2-samecut
   ICHARG =      2    charge: 1-file 2-atom 10-const
   ISPIN  =      1    spin polarized calculation?
   LNONCOLLINEAR =      F non collinear calculations
   LSORBIT =      F    spin-orbit coupling
   INIWAV =      1    electr: 0-lowe 1-rand  2-diag
   LASPH  =      F    aspherical Exc in radial PAW
 Electronic Relaxation 1
   ENCUT  = 1000.0 eV  73.50 Ry    8.57 a.u.  64.46 64.46 64.46*2*pi/ulx,y,z
   ENINI  = 1000.0     initial cutoff
   ENAUG  = 1000.0 eV  augmentation charge cutoff
   NELM   =     60;   NELMIN=  2; NELMDL= -5     # of ELM steps 
   EDIFF  = 0.1E-06   stopping-criterion for ELM
   LREAL  =      F    real-space projection
   NLSPLINE    = F    spline interpolate recip. space projectors
   LCOMPAT=      F    compatible to vasp.4.4
   GGA_COMPAT  = T    GGA compatible to vasp.4.4-vasp.4.6
   LMAXPAW     = -100 max onsite density
   LMAXMIX     =    2 max onsite mixed and CHGCAR
   VOSKOWN=      0    Vosko Wilk Nusair interpolation
   ROPT   =    0.00000   0.00000   0.00000
 Ionic relaxation
   EDIFFG = 0.1E-05   stopping-criterion for IOM
   NSW    =      0    number of steps for IOM
   NBLOCK =      1;   KBLOCK =      1    inner block; outer block 
   IBRION =     -1    ionic relax: 0-MD 1-quasi-New 2-CG
   NFREE  =      0    steps in history (QN), initial steepest desc. (CG)
   ISIF   =      0    stress and relaxation
   IWAVPR =     10    prediction:  0-non 1-charg 2-wave 3-comb
   ISYM   =      2    0-nonsym 1-usesym 2-fastsym
   LCORR  =      T    Harris-Foulkes like correction to forces

   POTIM  = 0.5000    time-step for ionic-motion
   TEIN   =    0.0    initial temperature
   TEBEG  =    0.0;   TEEND  =   0.0 temperature during run
   SMASS  =  -3.00    Nose mass-parameter (am)
   estimated Nose-frequenzy (Omega)   =  0.10E-29 period in steps = 0.13E+47 mass=  -0.143E-25a.u.
   SCALEE = 1.0000    scale energy and forces
   NPACO  =    256;   APACO  = 10.0  distance and # of slots for P.C.
   PSTRESS=    0.0 pullay stress

  Mass of Ions in am
   POMASS =  12.01  1.00 14.00
  Ionic Valenz
   ZVAL   =   4.00  1.00  5.00
  Atomic Wigner-Seitz radii
   RWIGS  =  -1.00 -1.00 -1.00
  virtual crystal weights 
   VCA    =   1.00  1.00  1.00
   NELECT =      56.0000    total number of electrons
   NUPDOWN=      -1.0000    fix difference up-down

 DOS related values:
   EMIN   =  10.00;   EMAX   =-10.00  energy-range for DOS
   EFERMI =   0.00;   METHOD = LEGACY      
   ISMEAR =     0;   SIGMA  =   0.01  broadening in eV -4-tet -1-fermi 0-gaus

 Electronic relaxation 2 (details)
   IALGO  =     58    algorithm
   LDIAG  =      T    sub-space diagonalisation (order eigenvalues)
   LSUBROT=      F    optimize rotation matrix (better conditioning)
   TURBO    =      0    0=normal 1=particle mesh
   IRESTART =      0    0=no restart 2=restart with 2 vectors
   NREBOOT  =      0    no. of reboots
   NMIN     =      0    reboot dimension
   EREF     =   0.00    reference energy to select bands
   IMIX   =      4    mixing-type and parameters
     AMIX     =   0.40;   BMIX     =  1.00
     AMIX_MAG =   1.60;   BMIX_MAG =  1.00
     AMIN     =   0.10
     WC   =   100.;   INIMIX=   1;  MIXPRE=   1;  MAXMIX= -45

 Intra band minimization:
   WEIMIN = 0.0000     energy-eigenvalue tresh-hold
   EBREAK =  0.63E-09  absolut break condition
   DEPER  =   0.30     relativ break condition  

   TIME   =   0.40     timestep for ELM

  volume/ion in A,a.u.               =     710.23      4792.85
  Fermi-wavevector in a.u.,A,eV,Ry     =   0.250533  0.473438  0.853991  0.062767
  Thomas-Fermi vector in A             =   1.067299

 Write flags
   LWAVE        =      F    write WAVECAR
   LDOWNSAMPLE  =      F    k-point downsampling of WAVECAR
   LCHARG       =      F    write CHGCAR
   LVTOT        =      F    write LOCPOT, total local potential
   LVHAR        =      F    write LOCPOT, Hartree potential only
   LELF         =      F    write electronic localiz. function (ELF)
   LORBIT       =      0    0 simple, 1 ext, 2 COOP (PROOUT), +10 PAW based schemes


 Dipole corrections
   LMONO  =      F    monopole corrections only (constant potential shift)
   LDIPOL =      F    correct potential (dipole corrections)
   IDIPOL =      0    1-x, 2-y, 3-z, 4-all directions 
   EPSILON=  1.0000000 bulk dielectric constant

 Exchange correlation treatment:
   GGA     =    PE    GGA type
   LEXCH   =     8    internal setting for exchange type
   LIBXC   =     F    Libxc                    
   VOSKOWN =     0    Vosko Wilk Nusair interpolation
   LHFCALC =     F    Hartree Fock is set to
   LHFONE  =     F    Hartree Fock one center treatment
   AEXX    =    0.0000 exact exchange contribution

 Linear response parameters
   LEPSILON=     F    determine dielectric tensor
   LRPA    =     F    only Hartree local field effects (RPA)
   LNABLA  =     F    use nabla operator in PAW spheres
   LVEL    =     F    velocity operator in full k-point grid
   CSHIFT  =0.1000    complex shift for real part using Kramers Kronig
   OMEGAMAX=  -1.0    maximum frequency
   DEG_THRESHOLD= 0.2000000E-02 threshold for treating states as degnerate
   RTIME   =   -0.100 relaxation time in fs
  (WPLASMAI=    0.000 imaginary part of plasma frequency in eV, 0.658/RTIME)
   DFIELD  = 0.0000000 0.0000000 0.0000000 field for delta impulse in time

  Optional k-point grid parameters
   LKPOINTS_OPT  =     F    use optional k-point grid
   KPOINTS_OPT_MODE=     1    mode for optional k-point grid

 Orbital magnetization related:
   ORBITALMAG=     F  switch on orbital magnetization
   LCHIMAG   =     F  perturbation theory with respect to B field
   DQ        =  0.001000  dq finite difference perturbation B field
   LLRAUG    =     F  two centre corrections for induced B field
   LBONE     =     F  B-component reconstruction in AE one-centre
   LVGVCALC  =     T  calculate vGv susceptibility
   LVGVAPPL  =     F  apply vGv susceptibility instead of pGv for G=0

 Random number generation:
   RANDOM_GENERATOR = DEFAULT
   PCG_SEED         = not used


--------------------------------------------------------------------------------------------------------


 Static calculation
 charge density and potential will be updated during run
 non-spin polarized calculation
 Conjugate gradient for all bands (Freysoldt, et al. PRB 79, 241103 (2009))
 preconditioned conjugated gradient                                        
 perform sub-space diagonalisation
    before iterative eigenvector-optimisation
 modified Broyden-mixing scheme, WC =      100.0
 initial mixing is a Kerker type mixing with AMIX =  0.4000 and BMIX =      1.0000
 Hartree-type preconditioning will be used
 using additional bands           12
 reciprocal scheme for non local part
 use partial core corrections
 no Harris-corrections to forces 
 use gradient corrections 
 use of overlap-Matrix (Vanderbilt PP)
 Gauss-broadening in eV      SIGMA  =   0.01


--------------------------------------------------------------------------------------------------------


  energy-cutoff  :     1000.00
  volume of cell :    15625.00
      direct lattice vectors                 reciprocal lattice vectors
    25.000000000  0.000000000  0.000000000     0.040000000  0.000000000  0.000000000
     0.000000000 25.000000000  0.000000000     0.000000000  0.040000000  0.000000000
     0.000000000  0.000000000 25.000000000     0.000000000  0.000000000  0.040000000

  length of vectors
    25.000000000 25.000000000 25.000000000     0.040000000  0.040000000  0.040000000



 k-points in units of 2pi/SCALE and weight: auto                                    
   0.00000000  0.00000000  0.00000000       1.000

 k-points in reciprocal lattice and weights: auto                                    
   0.00000000  0.00000000  0.00000000       1.000

 position of ions in fractional coordinates (direct lattice) 
   0.52754400  0.46210600  0.45225400
   0.44958400  0.43454600  0.49999800
   0.52754400  0.46210600  0.54774200
   0.44958800  0.51723400  0.45225000
   0.52754400  0.54480200  0.49999800
   0.44958800  0.51723400  0.54775000
   0.57160000  0.46193000  0.45195000
   0.51318000  0.44127800  0.41617800
   0.43472400  0.41354200  0.46423000
   0.43472400  0.41354200  0.53576600
   0.57160000  0.46193000  0.54804600
   0.51318000  0.44127800  0.58381800
   0.43472400  0.49675400  0.41617800
   0.43472400  0.55871000  0.45195000
   0.57160000  0.54515400  0.49999800
   0.51318000  0.58645800  0.49999800
   0.43472400  0.49675400  0.58382200
   0.43472400  0.55871000  0.54804600
   0.50861600  0.43294200  0.49999800
   0.50862000  0.51803400  0.45086600
   0.42840000  0.48967400  0.49999800
   0.50862000  0.51803400  0.54912600

 position of ions in cartesian coordinates  (Angst):
  13.18860000 11.55265000 11.30635000
  11.23960000 10.86365000 12.49995000
  13.18860000 11.55265000 13.69355000
  11.23970000 12.93085000 11.30625000
  13.18860000 13.62005000 12.49995000
  11.23970000 12.93085000 13.69375000
  14.29000000 11.54825000 11.29875000
  12.82950000 11.03195000 10.40445000
  10.86810000 10.33855000 11.60575000
  10.86810000 10.33855000 13.39415000
  14.29000000 11.54825000 13.70115000
  12.82950000 11.03195000 14.59545000
  10.86810000 12.41885000 10.40445000
  10.86810000 13.96775000 11.29875000
  14.29000000 13.62885000 12.49995000
  12.82950000 14.66145000 12.49995000
  10.86810000 12.41885000 14.59555000
  10.86810000 13.96775000 13.70115000
  12.71540000 10.82355000 12.49995000
  12.71550000 12.95085000 11.27165000
  10.71000000 12.24185000 12.49995000
  12.71550000 12.95085000 13.72815000



--------------------------------------------------------------------------------------------------------


 use parallel FFT for orbitals z direction half grid
 k-point   1 :   0.0000 0.0000 0.0000  plane waves:  561155

 maximum and minimum number of plane-waves per node :     17542    17530

 maximum number of plane-waves:    561155
 maximum index in each direction: 
   IXMAX=   64   IYMAX=   64   IZMAX=   64
   IXMIN=  -64   IYMIN=  -64   IZMIN=    0


 parallel 3D FFT for wavefunctions:
    minimum data exchange during FFTs selected (reduces bandwidth)
 parallel 3D FFT for charge:
    minimum data exchange during FFTs selected (reduces bandwidth)


 total amount of memory used by VASP MPI-rank0   167364. kBytes
=======================================================================

   base      :      30000. kBytes
   nonl-proj :       9539. kBytes
   fftplans  :      41190. kBytes
   grid      :      82425. kBytes
   one-center:          1. kBytes
   wavefun   :       4209. kBytes

     INWAV:  cpu time      0.0000: real time      0.0000
 Broyden mixing: mesh for mixing (old mesh)
   NGX =129   NGY =129   NGZ =129
  (NGX  =540   NGY  =540   NGZ  =540)
  gives a total of ****** points

 initial charge density was supplied:
 charge density of overlapping atoms calculated
 number of electron      56.0000000 magnetization 
 keeping initial charge density in first step


--------------------------------------------------------------------------------------------------------


 Maximum index for augmentation-charges            0 (set IRDMAX)


--------------------------------------------------------------------------------------------------------


 First call to EWALD:  gamma=   0.071
 Maximum number of real-space cells 3x 3x 3
 Maximum number of reciprocal cells 3x 3x 3

    FEWALD:  cpu time      0.0038: real time      0.0040


--------------------------------------- Ionic step        1  -------------------------------------------




--------------------------------------- Iteration      1(   1)  ---------------------------------------


    POTLOK:  cpu time      1.1954: real time      1.1964
    SETDIJ:  cpu time      0.0119: real time      0.0122
    TRIAL :  cpu time      1.6676: real time      1.6697
    CORREC:  cpu time      0.0012: real time      0.0012
    --------------------------------------------
      LOOP:  cpu time      2.8918: real time      2.8953

 eigenvalue-minimisations  :    96
 total energy-change (2. order) : 0.5907057E+03  (-0.1431882E+04)
 number of electron      56.0000000 magnetization 
 augmentation part       56.0000000 magnetization 

 Free energy of the ion-electron system (eV)
  ---------------------------------------------------
  alpha Z        PSCENC =         0.61187337
  Ewald energy   TEWEN  =      6596.92229518
  -Hartree energ DENC   =     -8035.09987111
  -exchange      EXHF   =         0.00000000
  -V(xc)+E(xc)   XCENC  =       140.46201058
  PAW double counting   =      1525.30504351    -1488.52757300
  entropy T*S    EENTRO =        -0.00328725
  eigenvalues    EBANDS =      -239.89753927
  atomic energy  EATOM  =      2090.93278114
  ---------------------------------------------------
  free energy    TOTEN  =       590.70573314 eV

  energy without entropy =      590.70902039  energy(sigma->0) =      590.70737677


--------------------------------------------------------------------------------------------------------




--------------------------------------- Iteration      1(   2)  ---------------------------------------


    TRIAL :  cpu time      2.1049: real time      2.1060
    CORREC:  cpu time      0.0005: real time      0.0005
    --------------------------------------------
      LOOP:  cpu time      2.1205: real time      2.1368

 eigenvalue-minimisations  :   136
 total energy-change (2. order) :-0.2809790E+03  (-0.2657663E+03)
 number of electron      56.0000000 magnetization 
 augmentation part       56.0000000 magnetization 

 Free energy of the ion-electron system (eV)
  ---------------------------------------------------
  alpha Z        PSCENC =         0.61187337
  Ewald energy   TEWEN  =      6596.92229518
  -Hartree energ DENC   =     -8035.09987111
  -exchange      EXHF   =         0.00000000
  -V(xc)+E(xc)   XCENC  =       140.46201058
  PAW double counting   =      1525.30504351    -1488.52757300
  entropy T*S    EENTRO =        -0.00053285
  eigenvalues    EBANDS =      -520.87930822
  atomic energy  EATOM  =      2090.93278114
  ---------------------------------------------------
  free energy    TOTEN  =       309.72671859 eV

  energy without entropy =      309.72725144  energy(sigma->0) =      309.72698501


--------------------------------------------------------------------------------------------------------




--------------------------------------- Iteration      1(   3)  ---------------------------------------


    TRIAL :  cpu time      2.0092: real time      2.0101
    CORREC:  cpu time      0.0001: real time      0.0001
    --------------------------------------------
      LOOP:  cpu time      2.0263: real time      2.0408

 eigenvalue-minimisations  :   128
 total energy-change (2. order) :-0.3082949E+03  (-0.2985193E+03)
 number of electron      56.0000000 magnetization 
 augmentation part       56.0000000 magnetization 

 Free energy of the ion-electron system (eV)
  ---------------------------------------------------
  alpha Z        PSCENC =         0.61187337
  Ewald energy   TEWEN  =      6596.92229518
  -Hartree energ DENC   =     -8035.09987111
  -exchange      EXHF   =         0.00000000
  -V(xc)+E(xc)   XCENC  =       140.46201058
  PAW double counting   =      1525.30504351    -1488.52757300
  entropy T*S    EENTRO =        -0.00000000
  eigenvalues    EBANDS =      -829.17469714
  atomic energy  EATOM  =      2090.93278114
  ---------------------------------------------------
  free energy    TOTEN  =         1.43186252 eV

  energy without entropy =        1.43186252  energy(sigma->0) =        1.43186252


--------------------------------------------------------------------------------------------------------




--------------------------------------- Iteration      1(   4)  ---------------------------------------


    TRIAL :  cpu time      1.8116: real time      1.8126
    CORREC:  cpu time      0.0001: real time      0.0001
    --------------------------------------------
      LOOP:  cpu time      1.8416: real time      1.8428

 eigenvalue-minimisations  :   112
 total energy-change (2. order) :-0.1277021E+03  (-0.1273597E+03)
 number of electron      56.0000000 magnetization 
 augmentation part       56.0000000 magnetization 

 Free energy of the ion-electron system (eV)
  ---------------------------------------------------
  alpha Z        PSCENC =         0.61187337
  Ewald energy   TEWEN  =      6596.92229518
  -Hartree energ DENC   =     -8035.09987111
  -exchange      EXHF   =         0.00000000
  -V(xc)+E(xc)   XCENC  =       140.46201058
  PAW double counting   =      1525.30504351    -1488.52757300
  entropy T*S    EENTRO =        -0.00000000
  eigenvalues    EBANDS =      -956.87675213
  atomic energy  EATOM  =      2090.93278114
  ---------------------------------------------------
  free energy    TOTEN  =      -126.27019247 eV

  energy without entropy =     -126.27019247  energy(sigma->0) =     -126.27019247


--------------------------------------------------------------------------------------------------------




--------------------------------------- Iteration      1(   5)  ---------------------------------------


    TRIAL :  cpu time      1.6237: real time      1.6241
    CORREC:  cpu time      0.0001: real time      0.0001
    CHARGE:  cpu time      0.3879: real time      0.3900
    --------------------------------------------
      LOOP:  cpu time      2.0264: real time      2.0449

 eigenvalue-minimisations  :    96
 total energy-change (2. order) :-0.1338738E+02  (-0.1336495E+02)
 number of electron      56.0000000 magnetization 
 augmentation part       -0.0774017 magnetization 

 Free energy of the ion-electron system (eV)
  ---------------------------------------------------
  alpha Z        PSCENC =         0.61187337
  Ewald energy   TEWEN  =      6596.92229518
  -Hartree energ DENC   =     -8035.09987111
  -exchange      EXHF   =         0.00000000
  -V(xc)+E(xc)   XCENC  =       140.46201058
  PAW double counting   =      1525.30504351    -1488.52757300
  entropy T*S    EENTRO =        -0.00000000
  eigenvalues    EBANDS =      -970.26413027
  atomic energy  EATOM  =      2090.93278114
  ---------------------------------------------------
  free energy    TOTEN  =      -139.65757061 eV

  energy without entropy =     -139.65757061  energy(sigma->0) =     -139.65757061


--------------------------------------------------------------------------------------------------------




--------------------------------------- Iteration      1(   6)  ---------------------------------------


    POTLOK:  cpu time      1.2204: real time      1.2211
    SETDIJ:  cpu time      0.0015: real time      0.0015
    TRIAL :  cpu time      0.9580: real time      0.9590
    CORREC:  cpu time      1.8531: real time      1.8544
    CHARGE:  cpu time      0.3642: real time      0.3645
    --------------------------------------------
      LOOP:  cpu time      4.4098: real time      4.4295

 eigenvalue-minimisations  :     0
 total energy-change (2. order) : 0.1684940E+02  (-0.5860729E+01)
 number of electron      56.0000000 magnetization 
 augmentation part       -0.0843143 magnetization 

 Free energy of the ion-electron system (eV)
  ---------------------------------------------------
  alpha Z        PSCENC =         0.61187337
  Ewald energy   TEWEN  =      6596.92229518
  -Hartree energ DENC   =     -8521.42457570
  -exchange      EXHF   =         0.00000000
  -V(xc)+E(xc)   XCENC  =       157.78125364
  PAW double counting   =     15404.46933188   -15369.54440545
  entropy T*S    EENTRO =        -0.00000000
  eigenvalues    EBANDS =      -482.55672361
  atomic energy  EATOM  =      2090.93278114
  ---------------------------------------------------
  free energy    TOTEN  =      -122.80816956 eV

  energy without entropy =     -122.80816956  energy(sigma->0) =     -122.80816956


--------------------------------------------------------------------------------------------------------




--------------------------------------- Iteration      1(   7)  ---------------------------------------


    POTLOK:  cpu time      1.2170: real time      1.2177
    SETDIJ:  cpu time      0.0013: real time      0.0013
    TRIAL :  cpu time      0.9535: real time      0.9542
    CORREC:  cpu time      1.8501: real time      1.8510
    CHARGE:  cpu time      0.3647: real time      0.3648
    --------------------------------------------
      LOOP:  cpu time      4.4119: real time      4.4196

 eigenvalue-minimisations  :     0
 total energy-change (2. order) :-0.5911555E+01  (-0.8967003E+00)
 number of electron      56.0000000 magnetization 
 augmentation part       -0.1013756 magnetization 

 Free energy of the ion-electron system (eV)
  ---------------------------------------------------
  alpha Z        PSCENC =         0.61187337
  Ewald energy   TEWEN  =      6596.92229518
  -Hartree energ DENC   =     -8306.40882791
  -exchange      EXHF   =         0.00000000
  -V(xc)+E(xc)   XCENC  =       151.88681210
  PAW double counting   =     18548.81657806   -18513.14004400
  entropy T*S    EENTRO =        -0.00000000
  eigenvalues    EBANDS =      -698.34119292
  atomic energy  EATOM  =      2090.93278114
  ---------------------------------------------------
  free energy    TOTEN  =      -128.71972499 eV

  energy without entropy =     -128.71972499  energy(sigma->0) =     -128.71972499


--------------------------------------------------------------------------------------------------------




--------------------------------------- Iteration      1(   8)  ---------------------------------------


    POTLOK:  cpu time      1.2160: real time      1.2165
    SETDIJ:  cpu time      0.0016: real time      0.0016
    TRIAL :  cpu time      0.9469: real time      0.9474
    CORREC:  cpu time      1.8468: real time      1.8479
    CHARGE:  cpu time      0.3663: real time      0.3665
    --------------------------------------------
      LOOP:  cpu time      4.3911: real time      4.4122

 eigenvalue-minimisations  :     0
 total energy-change (2. order) :-0.9024249E+00  (-0.3186595E+00)
 number of electron      56.0000000 magnetization 
 augmentation part       -0.0988727 magnetization 

 Free energy of the ion-electron system (eV)
  ---------------------------------------------------
  alpha Z        PSCENC =         0.61187337
  Ewald energy   TEWEN  =      6596.92229518
  -Hartree energ DENC   =     -8313.96035706
  -exchange      EXHF   =         0.00000000
  -V(xc)+E(xc)   XCENC  =       151.66997504
  PAW double counting   =     19953.50507754   -19917.66828433
  entropy T*S    EENTRO =        -0.00000000
  eigenvalues    EBANDS =      -691.63551078
  atomic energy  EATOM  =      2090.93278114
  ---------------------------------------------------
  free energy    TOTEN  =      -129.62214990 eV

  energy without entropy =     -129.62214990  energy(sigma->0) =     -129.62214990


--------------------------------------------------------------------------------------------------------




--------------------------------------- Iteration      1(   9)  ---------------------------------------


    POTLOK:  cpu time      1.2199: real time      1.2204
    SETDIJ:  cpu time      0.0013: real time      0.0013
    TRIAL :  cpu time      0.9481: real time      0.9484
    CORREC:  cpu time      1.8449: real time      1.8458
    CHARGE:  cpu time      0.3641: real time      0.3643
    --------------------------------------------
      LOOP:  cpu time      4.3910: real time      4.4106

 eigenvalue-minimisations  :     0
 total energy-change (2. order) :-0.3147156E+00  (-0.1441898E+00)
 number of electron      56.0000000 magnetization 
 augmentation part       -0.0972500 magnetization 

 Free energy of the ion-electron system (eV)
  ---------------------------------------------------
  alpha Z        PSCENC =         0.61187337
  Ewald energy   TEWEN  =      6596.92229518
  -Hartree energ DENC   =     -8303.25644456
  -exchange      EXHF   =         0.00000000
  -V(xc)+E(xc)   XCENC  =       151.37602803
  PAW double counting   =     20171.56397225   -20135.66205195
  entropy T*S    EENTRO =        -0.00000000
  eigenvalues    EBANDS =      -702.42531894
  atomic energy  EATOM  =      2090.93278114
  ---------------------------------------------------
  free energy    TOTEN  =      -129.93686549 eV

  energy without entropy =     -129.93686549  energy(sigma->0) =     -129.93686549


--------------------------------------------------------------------------------------------------------




--------------------------------------- Iteration      1(  10)  ---------------------------------------


    POTLOK:  cpu time      1.2162: real time      1.2171
    SETDIJ:  cpu time      0.0010: real time      0.0010
    TRIAL :  cpu time      0.9497: real time      0.9502
    CORREC:  cpu time      1.8391: real time      1.8397
    CHARGE:  cpu time      0.3650: real time      0.3655
    --------------------------------------------
      LOOP:  cpu time      4.4012: real time      4.4038

 eigenvalue-minimisations  :     0
 total energy-change (2. order) :-0.1422875E+00  (-0.4225608E-01)
 number of electron      56.0000000 magnetization 
 augmentation part       -0.0951412 magnetization 

 Free energy of the ion-electron system (eV)
  ---------------------------------------------------
  alpha Z        PSCENC =         0.61187337
  Ewald energy   TEWEN  =      6596.92229518
  -Hartree energ DENC   =     -8295.48039749
  -exchange      EXHF   =         0.00000000
  -V(xc)+E(xc)   XCENC  =       151.30628207
  PAW double counting   =     19725.07401472   -19689.18239379
  entropy T*S    EENTRO =        -0.00000000
  eigenvalues    EBANDS =      -710.26360821
  atomic energy  EATOM  =      2090.93278114
  ---------------------------------------------------
  free energy    TOTEN  =      -130.07915301 eV

  energy without entropy =     -130.07915301  energy(sigma->0) =     -130.07915301


--------------------------------------------------------------------------------------------------------




--------------------------------------- Iteration      1(  11)  ---------------------------------------


    POTLOK:  cpu time      1.2129: real time      1.2136
    SETDIJ:  cpu time      0.0012: real time      0.0012
    TRIAL :  cpu time      0.9494: real time      0.9497
    CORREC:  cpu time      1.8315: real time      1.8326
    CHARGE:  cpu time      0.3646: real time      0.3648
    --------------------------------------------
      LOOP:  cpu time      4.3764: real time      4.3928

 eigenvalue-minimisations  :     0
 total energy-change (2. order) :-0.4212498E-01  (-0.1348430E-01)
 number of electron      56.0000000 magnetization 
 augmentation part       -0.0936233 magnetization 

 Free energy of the ion-electron system (eV)
  ---------------------------------------------------
  alpha Z        PSCENC =         0.61187337
  Ewald energy   TEWEN  =      6596.92229518
  -Hartree energ DENC   =     -8295.03748182
  -exchange      EXHF   =         0.00000000
  -V(xc)+E(xc)   XCENC  =       151.32301279
  PAW double counting   =     19391.85982281   -19355.99552178
  entropy T*S    EENTRO =        -0.00000000
  eigenvalues    EBANDS =      -710.73805968
  atomic energy  EATOM  =      2090.93278114
  ---------------------------------------------------
  free energy    TOTEN  =      -130.12127798 eV

  energy without entropy =     -130.12127798  energy(sigma->0) =     -130.12127798


--------------------------------------------------------------------------------------------------------




--------------------------------------- Iteration      1(  12)  ---------------------------------------


    POTLOK:  cpu time      1.2024: real time      1.2030
    SETDIJ:  cpu time      0.0019: real time      0.0019
    TRIAL :  cpu time      0.9529: real time      0.9532
    CORREC:  cpu time      1.8248: real time      1.8261
    CHARGE:  cpu time      0.3640: real time      0.3645
    --------------------------------------------
      LOOP:  cpu time      4.3598: real time      4.3790

 eigenvalue-minimisations  :     0
 total energy-change (2. order) :-0.1348228E-01  (-0.4482529E-02)
 number of electron      56.0000000 magnetization 
 augmentation part       -0.0932353 magnetization 

 Free energy of the ion-electron system (eV)
  ---------------------------------------------------
  alpha Z        PSCENC =         0.61187337
  Ewald energy   TEWEN  =      6596.92229518
  -Hartree energ DENC   =     -8293.66345017
  -exchange      EXHF   =         0.00000000
  -V(xc)+E(xc)   XCENC  =       151.26220810
  PAW double counting   =     19298.68945667   -19262.83590074
  entropy T*S    EENTRO =        -0.00000000
  eigenvalues    EBANDS =      -712.05402381
  atomic energy  EATOM  =      2090.93278114
  ---------------------------------------------------
  free energy    TOTEN  =      -130.13476027 eV

  energy without entropy =     -130.13476027  energy(sigma->0) =     -130.13476027


--------------------------------------------------------------------------------------------------------




--------------------------------------- Iteration      1(  13)  ---------------------------------------


    POTLOK:  cpu time      1.1986: real time      1.1991
    SETDIJ:  cpu time      0.0015: real time      0.0015
    TRIAL :  cpu time      0.9506: real time      0.9509
    CORREC:  cpu time      1.8134: real time      1.8143
    CHARGE:  cpu time      0.3636: real time      0.3638
    --------------------------------------------
      LOOP:  cpu time      4.3455: real time      4.3624

 eigenvalue-minimisations  :     0
 total energy-change (2. order) :-0.4487314E-02  (-0.1867987E-02)
 number of electron      56.0000000 magnetization 
 augmentation part       -0.0930679 magnetization 

 Free energy of the ion-electron system (eV)
  ---------------------------------------------------
  alpha Z        PSCENC =         0.61187337
  Ewald energy   TEWEN  =      6596.92229518
  -Hartree energ DENC   =     -8294.31396148
  -exchange      EXHF   =         0.00000000
  -V(xc)+E(xc)   XCENC  =       151.25566744
  PAW double counting   =     19316.24646575   -19280.39899192
  entropy T*S    EENTRO =        -0.00000000
  eigenvalues    EBANDS =      -711.39537705
  atomic energy  EATOM  =      2090.93278114
  ---------------------------------------------------
  free energy    TOTEN  =      -130.13924758 eV

  energy without entropy =     -130.13924758  energy(sigma->0) =     -130.13924758


--------------------------------------------------------------------------------------------------------




--------------------------------------- Iteration      1(  14)  ---------------------------------------


    POTLOK:  cpu time      1.1786: real time      1.1792
    SETDIJ:  cpu time      0.0019: real time      0.0019
    TRIAL :  cpu time      0.9491: real time      0.9497
    CORREC:  cpu time      1.7958: real time      1.7968
    CHARGE:  cpu time      0.3639: real time      0.3641
    --------------------------------------------
      LOOP:  cpu time      4.9724: real time      5.4157

 eigenvalue-minimisations  :     0
 total energy-change (2. order) :-0.1867780E-02  (-0.8813612E-03)
 number of electron      56.0000000 magnetization 
 augmentation part       -0.0927981 magnetization 

 Free energy of the ion-electron system (eV)
  ---------------------------------------------------
  alpha Z        PSCENC =         0.61187337
  Ewald energy   TEWEN  =      6596.92229518
  -Hartree energ DENC   =     -8295.12249381
  -exchange      EXHF   =         0.00000000
  -V(xc)+E(xc)   XCENC  =       151.26693785
  PAW double counting   =     19360.98262373   -19325.13787071
  entropy T*S    EENTRO =        -0.00000000
  eigenvalues    EBANDS =      -710.59726211
  atomic energy  EATOM  =      2090.93278114
  ---------------------------------------------------
  free energy    TOTEN  =      -130.14111536 eV

  energy without entropy =     -130.14111536  energy(sigma->0) =     -130.14111536


--------------------------------------------------------------------------------------------------------




--------------------------------------- Iteration      1(  15)  ---------------------------------------


    POTLOK:  cpu time      1.1618: real time      1.1627
    SETDIJ:  cpu time      0.0018: real time      0.0018
    TRIAL :  cpu time      0.9498: real time      0.9501
    CORREC:  cpu time      1.7894: real time      1.7904
    CHARGE:  cpu time      0.3638: real time      0.3640
    --------------------------------------------
      LOOP:  cpu time      6.0066: real time      6.0403

 eigenvalue-minimisations  :     0
 total energy-change (2. order) :-0.8817423E-03  (-0.3575645E-03)
 number of electron      56.0000000 magnetization 
 augmentation part       -0.0924613 magnetization 

 Free energy of the ion-electron system (eV)
  ---------------------------------------------------
  alpha Z        PSCENC =         0.61187337
  Ewald energy   TEWEN  =      6596.92229518
  -Hartree energ DENC   =     -8295.04832184
  -exchange      EXHF   =         0.00000000
  -V(xc)+E(xc)   XCENC  =       151.26575257
  PAW double counting   =     19392.77003863   -19356.92455168
  entropy T*S    EENTRO =        -0.00000000
  eigenvalues    EBANDS =      -710.67186446
  atomic energy  EATOM  =      2090.93278114
  ---------------------------------------------------
  free energy    TOTEN  =      -130.14199710 eV

  energy without entropy =     -130.14199710  energy(sigma->0) =     -130.14199710


--------------------------------------------------------------------------------------------------------




--------------------------------------- Iteration      1(  16)  ---------------------------------------


    POTLOK:  cpu time      1.1562: real time      1.1572
    SETDIJ:  cpu time      0.0018: real time      0.0018
    TRIAL :  cpu time      0.9545: real time      0.9545
    CORREC:  cpu time      1.7858: real time      1.7872
    CHARGE:  cpu time      0.3654: real time      0.3659
    --------------------------------------------
      LOOP:  cpu time      4.2785: real time      4.2971

 eigenvalue-minimisations  :     0
 total energy-change (2. order) :-0.3581652E-03  (-0.1267387E-03)
 number of electron      56.0000000 magnetization 
 augmentation part       -0.0923191 magnetization 

 Free energy of the ion-electron system (eV)
  ---------------------------------------------------
  alpha Z        PSCENC =         0.61187337
  Ewald energy   TEWEN  =      6596.92229518
  -Hartree energ DENC   =     -8295.54896721
  -exchange      EXHF   =         0.00000000
  -V(xc)+E(xc)   XCENC  =       151.28051277
  PAW double counting   =     19399.10098869   -19363.25583154
  entropy T*S    EENTRO =        -0.00000000
  eigenvalues    EBANDS =      -710.18600766
  atomic energy  EATOM  =      2090.93278114
  ---------------------------------------------------
  free energy    TOTEN  =      -130.14235527 eV

  energy without entropy =     -130.14235527  energy(sigma->0) =     -130.14235527


--------------------------------------------------------------------------------------------------------




--------------------------------------- Iteration      1(  17)  ---------------------------------------


    POTLOK:  cpu time      1.1542: real time      1.1546
    SETDIJ:  cpu time      0.0014: real time      0.0014
    TRIAL :  cpu time      0.9464: real time      0.9472
    CORREC:  cpu time      1.7840: real time      1.7852
    CHARGE:  cpu time      0.3658: real time      0.3660
    --------------------------------------------
      LOOP:  cpu time      4.2668: real time      4.2847

 eigenvalue-minimisations  :     0
 total energy-change (2. order) :-0.1272835E-03  (-0.4179795E-04)
 number of electron      56.0000000 magnetization 
 augmentation part       -0.0922910 magnetization 

 Free energy of the ion-electron system (eV)
  ---------------------------------------------------
  alpha Z        PSCENC =         0.61187337
  Ewald energy   TEWEN  =      6596.92229518
  -Hartree energ DENC   =     -8295.47853487
  -exchange      EXHF   =         0.00000000
  -V(xc)+E(xc)   XCENC  =       151.28082115
  PAW double counting   =     19399.05134124   -19363.20543887
  entropy T*S    EENTRO =        -0.00000000
  eigenvalues    EBANDS =      -710.25762090
  atomic energy  EATOM  =      2090.93278114
  ---------------------------------------------------
  free energy    TOTEN  =      -130.14248255 eV

  energy without entropy =     -130.14248255  energy(sigma->0) =     -130.14248255


--------------------------------------------------------------------------------------------------------




--------------------------------------- Iteration      1(  18)  ---------------------------------------


    POTLOK:  cpu time      1.1542: real time      1.1548
    SETDIJ:  cpu time      0.0014: real time      0.0014
    TRIAL :  cpu time      0.9486: real time      0.9490
    CORREC:  cpu time      1.7827: real time      1.7840
    CHARGE:  cpu time      0.3644: real time      0.3645
    --------------------------------------------
      LOOP:  cpu time      4.2825: real time      4.2850

 eigenvalue-minimisations  :     0
 total energy-change (2. order) :-0.4190384E-04  (-0.1448272E-04)
 number of electron      56.0000000 magnetization 
 augmentation part       -0.0923172 magnetization 

 Free energy of the ion-electron system (eV)
  ---------------------------------------------------
  alpha Z        PSCENC =         0.61187337
  Ewald energy   TEWEN  =      6596.92229518
  -Hartree energ DENC   =     -8295.50232060
  -exchange      EXHF   =         0.00000000
  -V(xc)+E(xc)   XCENC  =       151.28217475
  PAW double counting   =     19398.22078334   -19362.37459545
  entropy T*S    EENTRO =        -0.00000000
  eigenvalues    EBANDS =      -710.23551618
  atomic energy  EATOM  =      2090.93278114
  ---------------------------------------------------
  free energy    TOTEN  =      -130.14252446 eV

  energy without entropy =     -130.14252446  energy(sigma->0) =     -130.14252446


--------------------------------------------------------------------------------------------------------




--------------------------------------- Iteration      1(  19)  ---------------------------------------


    POTLOK:  cpu time      1.1539: real time      1.1546
    SETDIJ:  cpu time      0.0015: real time      0.0015
    TRIAL :  cpu time      0.9492: real time      0.9497
    CORREC:  cpu time      1.7817: real time      1.7830
    CHARGE:  cpu time      0.3646: real time      0.3648
    --------------------------------------------
      LOOP:  cpu time      4.2689: real time      4.2862

 eigenvalue-minimisations  :     0
 total energy-change (2. order) :-0.1440198E-04  (-0.5420560E-05)
 number of electron      56.0000000 magnetization 
 augmentation part       -0.0923500 magnetization 

 Free energy of the ion-electron system (eV)
  ---------------------------------------------------
  alpha Z        PSCENC =         0.61187337
  Ewald energy   TEWEN  =      6596.92229518
  -Hartree energ DENC   =     -8295.47878531
  -exchange      EXHF   =         0.00000000
  -V(xc)+E(xc)   XCENC  =       151.28188537
  PAW double counting   =     19396.90112136   -19361.05479206
  entropy T*S    EENTRO =        -0.00000000
  eigenvalues    EBANDS =      -710.25891790
  atomic energy  EATOM  =      2090.93278114
  ---------------------------------------------------
  free energy    TOTEN  =      -130.14253886 eV

  energy without entropy =     -130.14253886  energy(sigma->0) =     -130.14253886


--------------------------------------------------------------------------------------------------------




--------------------------------------- Iteration      1(  20)  ---------------------------------------


    POTLOK:  cpu time      1.1535: real time      1.1542
    SETDIJ:  cpu time      0.0017: real time      0.0017
    TRIAL :  cpu time      0.9533: real time      0.9537
    CORREC:  cpu time      1.7861: real time      1.7868
    CHARGE:  cpu time      0.3647: real time      0.3652
    --------------------------------------------
      LOOP:  cpu time      4.2762: real time      4.2921

 eigenvalue-minimisations  :     0
 total energy-change (2. order) :-0.5297967E-05  (-0.2162352E-05)
 number of electron      56.0000000 magnetization 
 augmentation part       -0.0923704 magnetization 

 Free energy of the ion-electron system (eV)
  ---------------------------------------------------
  alpha Z        PSCENC =         0.61187337
  Ewald energy   TEWEN  =      6596.92229518
  -Hartree energ DENC   =     -8295.43513379
  -exchange      EXHF   =         0.00000000
  -V(xc)+E(xc)   XCENC  =       151.28093374
  PAW double counting   =     19394.64208442   -19358.79572896
  entropy T*S    EENTRO =        -0.00000000
  eigenvalues    EBANDS =      -710.30164926
  atomic energy  EATOM  =      2090.93278114
  ---------------------------------------------------
  free energy    TOTEN  =      -130.14254416 eV

  energy without entropy =     -130.14254416  energy(sigma->0) =     -130.14254416


--------------------------------------------------------------------------------------------------------




--------------------------------------- Iteration      1(  21)  ---------------------------------------


    POTLOK:  cpu time      1.1499: real time      1.1504
    SETDIJ:  cpu time      0.0020: real time      0.0020
    TRIAL :  cpu time      0.9493: real time      0.9498
    CORREC:  cpu time      1.7820: real time      1.7834
    CHARGE:  cpu time      0.3645: real time      0.3647
    --------------------------------------------
      LOOP:  cpu time      4.2779: real time      4.2807

 eigenvalue-minimisations  :     0
 total energy-change (2. order) :-0.2011537E-05  (-0.7195988E-06)
 number of electron      56.0000000 magnetization 
 augmentation part       -0.0923867 magnetization 

 Free energy of the ion-electron system (eV)
  ---------------------------------------------------
  alpha Z        PSCENC =         0.61187337
  Ewald energy   TEWEN  =      6596.92229518
  -Hartree energ DENC   =     -8295.44667990
  -exchange      EXHF   =         0.00000000
  -V(xc)+E(xc)   XCENC  =       151.28113050
  PAW double counting   =     19392.30559296   -19356.45935955
  entropy T*S    EENTRO =        -0.00000000
  eigenvalues    EBANDS =      -710.29017986
  atomic energy  EATOM  =      2090.93278114
  ---------------------------------------------------
  free energy    TOTEN  =      -130.14254617 eV

  energy without entropy =     -130.14254617  energy(sigma->0) =     -130.14254617


--------------------------------------------------------------------------------------------------------




--------------------------------------- Iteration      1(  22)  ---------------------------------------


    POTLOK:  cpu time      1.1524: real time      1.1529
    SETDIJ:  cpu time      0.0019: real time      0.0019
    TRIAL :  cpu time      0.9497: real time      0.9501
    CORREC:  cpu time      1.7829: real time      1.7842
    CHARGE:  cpu time      0.3646: real time      0.3647
    --------------------------------------------
      LOOP:  cpu time      4.2650: real time      4.2845

 eigenvalue-minimisations  :     0
 total energy-change (2. order) :-0.6841983E-06  (-0.3468816E-06)
 number of electron      56.0000000 magnetization 
 augmentation part       -0.0923915 magnetization 

 Free energy of the ion-electron system (eV)
  ---------------------------------------------------
  alpha Z        PSCENC =         0.61187337
  Ewald energy   TEWEN  =      6596.92229518
  -Hartree energ DENC   =     -8295.41706599
  -exchange      EXHF   =         0.00000000
  -V(xc)+E(xc)   XCENC  =       151.28028663
  PAW double counting   =     19391.45731518   -19355.61105457
  entropy T*S    EENTRO =        -0.00000000
  eigenvalues    EBANDS =      -710.31897779
  atomic energy  EATOM  =      2090.93278114
  ---------------------------------------------------
  free energy    TOTEN  =      -130.14254685 eV

  energy without entropy =     -130.14254685  energy(sigma->0) =     -130.14254685


--------------------------------------------------------------------------------------------------------




--------------------------------------- Iteration      1(  23)  ---------------------------------------


    POTLOK:  cpu time      1.1507: real time      1.1516
    SETDIJ:  cpu time      0.0015: real time      0.0015
    TRIAL :  cpu time      0.9512: real time      0.9513
    CORREC:  cpu time      1.7816: real time      1.7827
    CHARGE:  cpu time      0.3646: real time      0.3652
    --------------------------------------------
      LOOP:  cpu time      4.2646: real time      4.2830

 eigenvalue-minimisations  :     0
 total energy-change (2. order) :-0.2931629E-06  (-0.1091902E-06)
 number of electron      56.0000000 magnetization 
 augmentation part       -0.0923947 magnetization 

 Free energy of the ion-electron system (eV)
  ---------------------------------------------------
  alpha Z        PSCENC =         0.61187337
  Ewald energy   TEWEN  =      6596.92229518
  -Hartree energ DENC   =     -8295.44029562
  -exchange      EXHF   =         0.00000000
  -V(xc)+E(xc)   XCENC  =       151.28072013
  PAW double counting   =     19391.45128898   -19355.60508003
  entropy T*S    EENTRO =        -0.00000000
  eigenvalues    EBANDS =      -710.29613029
  atomic energy  EATOM  =      2090.93278114
  ---------------------------------------------------
  free energy    TOTEN  =      -130.14254715 eV

  energy without entropy =     -130.14254715  energy(sigma->0) =     -130.14254715


--------------------------------------------------------------------------------------------------------




--------------------------------------- Iteration      1(  24)  ---------------------------------------


    POTLOK:  cpu time      1.1527: real time      1.1534
    SETDIJ:  cpu time      0.0014: real time      0.0014
    TRIAL :  cpu time      0.9478: real time      0.9483
    CORREC:  cpu time      1.7835: real time      1.7845
    CHARGE:  cpu time      0.3652: real time      0.3654
    --------------------------------------------
      LOOP:  cpu time      4.2653: real time      4.2841

 eigenvalue-minimisations  :     0
 total energy-change (2. order) :-0.1034568E-06  (-0.6919950E-07)
 number of electron      56.0000000 magnetization 
 augmentation part       -0.0923945 magnetization 

 Free energy of the ion-electron system (eV)
  ---------------------------------------------------
  alpha Z        PSCENC =         0.61187337
  Ewald energy   TEWEN  =      6596.92229518
  -Hartree energ DENC   =     -8295.42958139
  -exchange      EXHF   =         0.00000000
  -V(xc)+E(xc)   XCENC  =       151.28044137
  PAW double counting   =     19391.82160780   -19355.97536666
  entropy T*S    EENTRO =        -0.00000000
  eigenvalues    EBANDS =      -710.30659804
  atomic energy  EATOM  =      2090.93278114
  ---------------------------------------------------
  free energy    TOTEN  =      -130.14254725 eV

  energy without entropy =     -130.14254725  energy(sigma->0) =     -130.14254725


--------------------------------------------------------------------------------------------------------




--------------------------------------- Iteration      1(  25)  ---------------------------------------


    POTLOK:  cpu time      1.1516: real time      1.1522
    SETDIJ:  cpu time      0.0016: real time      0.0016
    TRIAL :  cpu time      0.9518: real time      0.9522
    CORREC:  cpu time      1.7796: real time      1.7807
    EDDIAG:  cpu time      0.4182: real time      0.4183
    CHARGE:  cpu time      0.3636: real time      0.3640
    --------------------------------------------
      LOOP:  cpu time      4.6810: real time      4.6999

 eigenvalue-minimisations  :     0
 total energy-change (2. order) :-0.6347909E-07  (-0.4331648E-07)
 number of electron      56.0000000 magnetization 
 augmentation part       -0.0923921 magnetization 

 Free energy of the ion-electron system (eV)
  ---------------------------------------------------
  alpha Z        PSCENC =         0.61187337
  Ewald energy   TEWEN  =      6596.92229518
  -Hartree energ DENC   =     -8295.42826239
  -exchange      EXHF   =         0.00000000
  -V(xc)+E(xc)   XCENC  =       151.28043333
  PAW double counting   =     19392.19254165   -19356.34628788
  entropy T*S    EENTRO =        -0.00000000
  eigenvalues    EBANDS =      -710.30792171
  atomic energy  EATOM  =      2090.93278114
  ---------------------------------------------------
  free energy    TOTEN  =      -130.14254731 eV

  energy without entropy =     -130.14254731  energy(sigma->0) =     -130.14254731


--------------------------------------------------------------------------------------------------------


  average scaling for gradient   0.9481


 average (electrostatic) potential at core
  the test charge radii are     0.5770  0.4325  0.5902
  (the norm of the test charge is              1.0000)
       1 -87.1514       2 -87.1506       3 -87.1516       4 -87.1511       5 -87.1518
       6 -87.1514       7 -44.9375       8 -44.9363       9 -44.9362      10 -44.9363
      11 -44.9376      12 -44.9365      13 -44.9363      14 -44.9365      15 -44.9377
      16 -44.9368      17 -44.9368      18 -44.9367      19-103.3384      20-103.3387
      21-103.3373      22-103.3389



 E-fermi :  -4.9134     XC(G=0):  -0.1628     alpha+bet : -0.0850

 Fermi energy:        -4.9133932851

 k-point     1 :       0.0000    0.0000    0.0000
  band No.  band energies     occupation 
      1     -25.3154      2.00000
      2     -22.2378      2.00000
      3     -22.2371      2.00000
      4     -22.2355      2.00000
      5     -17.3987      2.00000
      6     -17.3987      2.00000
      7     -16.0341      2.00000
      8     -16.0339      2.00000
      9     -16.0336      2.00000
     10     -13.8349      2.00000
     11     -11.9690      2.00000
     12     -11.9689      2.00000
     13     -11.9686      2.00000
     14     -11.6083      2.00000
     15     -11.6079      2.00000
     16     -11.6077      2.00000
     17      -9.2987      2.00000
     18      -9.2983      2.00000
     19      -9.2979      2.00000
     20      -9.1314      2.00000
     21      -9.1313      2.00000
     22      -8.6403      2.00000
     23      -8.6400      2.00000
     24      -8.6391      2.00000
     25      -8.5244      2.00000
     26      -5.0201      2.00000
     27      -5.0199      2.00000
     28      -5.0194      2.00000
     29      -0.6272      0.00000
     30      -0.0691      0.00000
     31      -0.0691      0.00000
     32      -0.0689      0.00000
     33       0.0896      0.00000
     34       0.2547      0.00000
     35       0.3438      0.00000
     36       0.3758      0.00000
     37       0.3915      0.00000
     38       0.4100      0.00000
     39       0.4733      0.00000
     40       0.4796      0.00000


--------------------------------------------------------------------------------------------------------


 soft charge-density along one line, spin component           1
         0         1         2         3         4         5         6         7         8         9
 total charge-density along one line

 pseudopotential strength for first ion, spin component:           1
 12.751  21.459   0.004   0.006  -0.005   0.007   0.011  -0.009
 21.459  36.111   0.006   0.011  -0.009   0.011   0.019  -0.015
  0.004   0.006  -3.197   0.001   0.000  -5.733   0.001   0.001
  0.006   0.011   0.001  -3.197   0.001   0.001  -5.732   0.001
 -0.005  -0.009   0.000   0.001  -3.196   0.001   0.001  -5.730
  0.007   0.011  -5.733   0.001   0.001 -10.256   0.002   0.001
  0.011   0.019   0.001  -5.732   0.001   0.002 -10.254   0.002
 -0.009  -0.015   0.001   0.001  -5.730   0.001   0.002 -10.252
 total augmentation occupancy for first ion, spin component:           1
  7.236  -2.506   0.113   0.194  -0.158  -0.075  -0.130   0.106
 -2.506   0.915  -0.095  -0.164   0.134   0.051   0.089  -0.073
  0.113  -0.095   5.609  -0.063  -0.009  -1.876   0.082   0.027
  0.194  -0.164  -0.063   5.536  -0.016   0.082  -1.781   0.047
 -0.158   0.134  -0.009  -0.016   5.488   0.027   0.047  -1.696
 -0.075   0.051  -1.876   0.082   0.027   0.645  -0.050  -0.017
 -0.130   0.089   0.082  -1.781   0.047  -0.050   0.587  -0.030
  0.106  -0.073   0.027   0.047  -1.696  -0.017  -0.030   0.533


------------------------ aborting loop because EDIFF is reached ----------------------------------------


    FORLOC:  cpu time      0.0951: real time      0.0951
    FORNL :  cpu time      0.1016: real time      0.1016
    FORCOR:  cpu time      1.0362: real time      1.0366
    OFIELD:  cpu time      0.0076: real time      0.0080

  Hirshfeld charges:
            ion         q(e)     
   ------------------------------
      1     C       -0.00025598
      2     C       -0.00030960
      3     C       -0.00025094
      4     C       -0.00027393
      5     C       -0.00022966
      6     C       -0.00025869
      7     H        0.04212313
      8     H        0.04211082
      9     H        0.04208519
     10     H        0.04208443
     11     H        0.04212446
     12     H        0.04211537
     13     H        0.04211147
     14     H        0.04209584
     15     H        0.04213542
     16     H        0.04213460
     17     H        0.04212612
     18     H        0.04209764
     19     N       -0.12593939
     20     N       -0.12592445
     21     N       -0.12598404
     22     N       -0.12591779

  Atomic reference data used in the T-S method for vdW correction:
            C6at              R0at           ALPHAat      REFSTATE
            (au)              (au)            (au)                
   ---------------------------------------------------------------
   C          46.600          3.590         12.000         0
   H           6.500          3.099          4.500         0
   N          24.200          3.345          7.400         0
 
 Nth order contribution to Edisp (eV)
 Edisp(N=2): -0.67634237150330856     
 Edisp(N=3):   3.9871976643202765E-002
 Edisp(N=4):  -1.5950896185540790E-002
 Edisp(N=5):   3.2974407789278437E-003
 Edisp(N=6):  -1.1738836956765527E-003
 Edisp(N=inf): -0.65003292092398834     

  Tkatchenko/Scheffler method for vdW energy calculation
  ---------------------------------------------------------------------------------------------

  Parameters of vdW forcefield:
            C6ts              R0ts          ALPHAts         R0scs        ALPHAscs        RELVOL 
            (au)              (au)           (au)            (au)          (au)                 
   ---------------------------------------------------------------------------------------------
   C          31.479          3.363          9.863          3.293          9.259          0.822
   C          31.481          3.363          9.863          3.293          9.258          0.822
   C          31.479          3.363          9.863          3.293          9.259          0.822
   C          31.481          3.363          9.863          3.293          9.259          0.822
   C          31.477          3.363          9.862          3.293          9.259          0.822
   C          31.480          3.363          9.863          3.293          9.259          0.822
   H           2.753          2.686          2.928          2.365          2.001          0.651
   H           2.753          2.686          2.929          2.366          2.001          0.651
   H           2.753          2.686          2.929          2.366          2.001          0.651
   H           2.753          2.686          2.929          2.366          2.001          0.651
   H           2.753          2.686          2.928          2.365          2.001          0.651
   H           2.753          2.686          2.929          2.366          2.001          0.651
   H           2.753          2.686          2.929          2.366          2.001          0.651
   H           2.753          2.686          2.929          2.366          2.001          0.651
   H           2.752          2.686          2.928          2.365          2.001          0.651
   H           2.753          2.686          2.928          2.365          2.001          0.651
   H           2.753          2.686          2.929          2.366          2.001          0.651
   H           2.753          2.686          2.929          2.366          2.001          0.651
   N          19.724          3.233          6.681          3.009          5.387          0.903
   N          19.724          3.233          6.681          3.009          5.387          0.903
   N          19.725          3.233          6.681          3.009          5.387          0.903
   N          19.723          3.233          6.681          3.009          5.387          0.903

  vdW correction parametrized for the method pbe       

  IVDW = 202
  VDW_RADIUS =    50.000 A
  VDW_SR =     0.830
  VDW_D =     6.000
  SCSRAD =   120.000 A
  LVDWSCS = T
  LSCSGRAD = T
  LSCALER0 = T
  ITIM = -1
  Edisp (eV):   -0.65003
    FORVDW:  cpu time      8.3023: real time      8.3063

 VOLUME and BASIS-vectors are now :
 -----------------------------------------------------------------------------
  energy-cutoff  :     1000.00
  volume of cell :    15625.00
      direct lattice vectors                 reciprocal lattice vectors
    25.000000000  0.000000000  0.000000000     0.040000000  0.000000000  0.000000000
     0.000000000 25.000000000  0.000000000     0.000000000  0.040000000  0.000000000
     0.000000000  0.000000000 25.000000000     0.000000000  0.000000000  0.040000000

  length of vectors
    25.000000000 25.000000000 25.000000000     0.040000000  0.040000000  0.040000000


 FORCES acting on ions:
    Electron-Ion                     Ewald-Force                    Non-Local-Force
 -----------------------------------------------------------------------------------------------
   -.183E+03 0.130E+03 0.225E+03   0.187E+03 -.132E+03 -.228E+03   -.327E+01 0.231E+01 0.400E+01
   0.183E+03 0.259E+03 -.480E-03   -.187E+03 -.264E+03 0.411E-03   0.326E+01 0.461E+01 0.139E-03
   -.183E+03 0.130E+03 -.225E+03   0.187E+03 -.132E+03 0.228E+03   -.327E+01 0.231E+01 -.400E+01
   0.183E+03 -.130E+03 0.225E+03   -.187E+03 0.132E+03 -.228E+03   0.326E+01 -.231E+01 0.400E+01
   -.183E+03 -.259E+03 0.893E-02   0.186E+03 0.264E+03 -.100E-01   -.327E+01 -.462E+01 0.691E-04
   0.183E+03 -.130E+03 -.225E+03   -.187E+03 0.132E+03 0.228E+03   0.326E+01 -.231E+01 -.400E+01
   -.101E+03 0.200E+02 0.347E+02   0.107E+03 -.201E+02 -.348E+02   -.563E+01 0.821E-01 0.142E+00
   -.401E+01 0.544E+02 0.941E+02   0.229E+01 -.570E+02 -.988E+02   0.172E+01 0.268E+01 0.464E+01
   0.526E+02 0.744E+02 0.595E+02   -.545E+02 -.771E+02 -.640E+02   0.195E+01 0.276E+01 0.450E+01
   0.526E+02 0.744E+02 -.595E+02   -.545E+02 -.771E+02 0.640E+02   0.195E+01 0.276E+01 -.450E+01
   -.101E+03 0.200E+02 -.347E+02   0.107E+03 -.201E+02 0.348E+02   -.563E+01 0.821E-01 -.142E+00
   -.401E+01 0.544E+02 -.941E+02   0.229E+01 -.570E+02 0.988E+02   0.172E+01 0.268E+01 -.464E+01
   0.526E+02 0.143E+02 0.941E+02   -.545E+02 -.168E+02 -.987E+02   0.195E+01 0.252E+01 0.464E+01
   0.526E+02 -.887E+02 0.347E+02   -.545E+02 0.939E+02 -.348E+02   0.195E+01 -.528E+01 0.141E+00
   -.101E+03 -.400E+02 0.926E-04   0.107E+03 0.402E+02 -.113E-03   -.563E+01 -.164E+00 0.211E-04
   -.401E+01 -.109E+03 0.713E-04   0.229E+01 0.114E+03 -.135E-03   0.172E+01 -.536E+01 0.969E-05
   0.526E+02 0.143E+02 -.941E+02   -.545E+02 -.168E+02 0.987E+02   0.195E+01 0.252E+01 -.464E+01
   0.526E+02 -.887E+02 -.347E+02   -.545E+02 0.939E+02 0.348E+02   0.195E+01 -.528E+01 -.141E+00
   -.128E+03 0.363E+03 -.257E-03   0.138E+03 -.392E+03 0.746E-04   -.103E+02 0.292E+02 0.196E-03
   -.128E+03 -.181E+03 0.314E+03   0.138E+03 0.196E+03 -.339E+03   -.103E+02 -.146E+02 0.253E+02
   0.385E+03 -.601E-01 -.986E-02   -.415E+03 0.659E-01 0.107E-01   0.309E+02 -.721E-02 0.699E-03
   -.128E+03 -.181E+03 -.314E+03   0.138E+03 0.196E+03 0.339E+03   -.103E+02 -.146E+02 -.253E+02
 -----------------------------------------------------------------------------------------------
   0.240E-01 0.936E-02 -.570E-02   -.284E-13 -.853E-13 0.000E+00   -.238E-01 -.933E-02 0.567E-02


 POSITION                                       TOTAL-FORCE (eV/Angst)
 -----------------------------------------------------------------------------------
     13.18860     11.55265     11.30635        -0.056658      0.036145      0.064019
     11.23960     10.86365     12.49995         0.048992      0.074223      0.000065
     13.18860     11.55265     13.69355        -0.056582      0.036313     -0.064722
     11.23970     12.93085     11.30625         0.047802     -0.037900      0.067864
     13.18860     13.62005     12.49995        -0.057236     -0.075783     -0.000984
     11.23970     12.93085     13.69375         0.048038     -0.038013     -0.070993
     14.29000     11.54825     11.29875        -0.034155      0.009776      0.017489
     12.82950     11.03195     10.40445        -0.005617      0.021327      0.037398
     10.86810     10.33855     11.60575         0.022510      0.030744      0.017009
     10.86810     10.33855     13.39415         0.022509      0.030745     -0.017046
     14.29000     11.54825     13.70115        -0.034141      0.009771     -0.017494
     12.82950     11.03195     14.59545        -0.005683      0.021568     -0.037373
     10.86810     12.41885     10.40445         0.023458      0.000565      0.036846
     10.86810     13.96775     11.29875         0.023096     -0.029578      0.016919
     14.29000     13.62885     12.49995        -0.034263     -0.020134      0.000002
     12.82950     14.66145     12.49995        -0.006074     -0.042895     -0.000052
     10.86810     12.41885     14.59555         0.023811      0.000629     -0.037044
     10.86810     13.96775     13.70115         0.023056     -0.029614     -0.016496
     12.71540     10.82355     12.49995         0.033045     -0.081410      0.000010
     12.71550     12.95085     11.27165         0.031353      0.042787     -0.069431
     10.71000     12.24185     12.49995        -0.088155     -0.001305      0.001514
     12.71550     12.95085     13.72815         0.030893      0.042040      0.072498
 -----------------------------------------------------------------------------------
    total drift:                                0.000225      0.000030     -0.000034


--------------------------------------------------------------------------------------------------------



  FREE ENERGIE OF THE ION-ELECTRON SYSTEM (eV)
  ---------------------------------------------------
  free  energy   TOTEN  =      -130.79258023 eV

  energy  without entropy=     -130.79258023  energy(sigma->0) =     -130.79258023



--------------------------------------------------------------------------------------------------------


    POTLOK:  cpu time      1.1557: real time      1.1571


--------------------------------------------------------------------------------------------------------


 stress matrix after NEB project (eV)
     -0.24357      0.00000      0.00001
      0.00000     -0.24360      0.00000
      0.00001      0.00000     -0.24365
  FORCES: max atom, RMS     0.094973    0.068609
  FORCE total and by dimension    0.321803    0.088155
  Stress total and by dimension    0.421940    0.243652
     LOOP+:  cpu time    110.8462: real time    147.8013
    4ORBIT:  cpu time      0.0000: real time      0.0000

 total amount of memory used by VASP MPI-rank0   167364. kBytes
=======================================================================

   base      :      30000. kBytes
   nonl-proj :       9539. kBytes
   fftplans  :      41190. kBytes
   grid      :      82425. kBytes
   one-center:          1. kBytes
   wavefun   :       4209. kBytes

  
  
 General timing and accounting informations for this job:
 ========================================================
  
                  Total CPU time used (sec):      142.439
                            User time (sec):      138.689
                          System time (sec):        3.750
                         Elapsed time (sec):      188.195
  
                   Maximum memory used (kb):      377528.
                   Average memory used (kb):          N/A
  
                          Minor page faults:       184458
                          Major page faults:          760
                 Voluntary context switches:         7658
