 vasp.6.4.1 05Apr23 (build May 30 2023 08:45:49) gamma-only                      
 executed on        HPECrayEX_GCC date 2024.03.09  10:25:41
 running  512 mpi-ranks, with    1 threads/rank, on    4 nodes
 distrk:  each k-point on  512 cores,    1 groups
 distr:  one band on NCORE=   4 cores,  128 groups


--------------------------------------------------------------------------------------------------------


 INCAR:
   NPAR = 128
   ISMEAR = 0
   SIGMA = 0.01
   ALGO = C
   PREC = Accurate
   EDIFF = 1E-8
   ENCUT = 1000
   ISIF = 1
   IBRION = 1
   GGA = ML
   LUSE_VDW = .TRUE.
   ZAB_VDW = -1.8867
   AGGAC = 0.0000
   LASPH = .TRUE.

 POTCAR:    PAW_PBE C_h 06Feb2004                 
 POTCAR:    PAW_PBE H_h 06Feb2004                 
 POTCAR:    PAW_PBE O_h 06Feb2004                 
 -----------------------------------------------------------------------------
|                                                                             |
|               ----> ADVICE to this user running VASP <----                  |
|                                                                             |
|     You have switched on vdW-DFT.                                           |
|     This routine was written and supplied by Jiri Klimes. We recommend      |
|     that you carefully read and cite the following publications:            |
|       J. Klimes, D.R. Bowler, A. Michelides                                 |
|          J. Phys.: Cond Matt. 22 022201 (2010)                              |
|       J. Klimes, D.R. Bowler, A. Michelides                                 |
|          Phys. Rev. B. 83, 195131 (2011)                                    |
|     and references therein.                                                 |
|                                                                             |
 -----------------------------------------------------------------------------

 POTCAR:    PAW_PBE C_h 06Feb2004                 
   VRHFIN =C: s2p2                                                                                  
   LEXCH  = PE                                                                                      
   EATOM  =   147.1560 eV,   10.8157 Ry                                                             
                                                                                                    
   TITEL  = PAW_PBE C_h 06Feb2004                                                                   
   LULTRA =        F    use ultrasoft PP ?                                                          
   IUNSCR =        1    unscreen: 0-lin 1-nonlin 2-no                                               
   RPACOR =    0.800    partial core radius                                                         
   POMASS =   12.011; ZVAL   =    4.000    mass and valenz                                          
   RCORE  =    1.100    outmost cutoff radius                                                       
   RWIGS  =    1.630; RWIGS  =    0.863    wigner-seitz radius (au A)                               
   ENMAX  =  700.000; ENMIN  =  500.000 eV                                                          
   ICORE  =        2    local potential                                                             
   LCOR   =        T    correct aug charges                                                         
   LPAW   =        T    paw PP                                                                      
   EAUG   =  946.768                                                                                
   DEXC   =    0.000                                                                                
   RMAX   =    1.128    core radius for proj-oper                                                   
   RAUG   =    1.300    factor for augmentation sphere                                              
   RDEP   =    1.162    radius for radial grids                                                     
   RDEPT  =    1.088    core radius for aug-charge                                                  
                                                                                                    
   Atomic configuration                                                                             
    4 entries                                                                                       
     n  l   j            E        occ.                                                              
     1  0  0.50      -273.3789   2.0000                                                             
     2  0  0.50       -13.7508   2.0000                                                             
     2  1  0.50        -5.2854   2.0000                                                             
     3  2  1.50        -5.4423   0.0000                                                             
   Description                                                                                      
     l       E           TYP  RCUT    TYP  RCUT                                                     
     0    -13.7508458     23  1.100                                                                 
     0     -8.2022199     23  1.100                                                                 
     1     -5.2854383     23  1.100                                                                 
     1      1.1560700     23  1.100                                                                 
     2     -5.4423304      7  1.100                                                                 
  local pseudopotential read in
  partial core-charges read in
  partial kinetic energy density read in
  atomic valenz-charges read in
  non local Contribution for L=           0  read in
    real space projection operators read in
  non local Contribution for L=           0  read in
    real space projection operators read in
  non local Contribution for L=           1  read in
    real space projection operators read in
  non local Contribution for L=           1  read in
    real space projection operators read in
    PAW grid and wavefunctions read in

   number of l-projection  operators is LMAX  =           4
   number of lm-projection operators is LMMAX =           8

 POTCAR:    PAW_PBE H_h 06Feb2004                 
   VRHFIN =H: ultrasoft test                                                                        
   LEXCH  = PE                                                                                      
   EATOM  =    12.4884 eV,    0.9179 Ry                                                             
                                                                                                    
   TITEL  = PAW_PBE H_h 06Feb2004                                                                   
   LULTRA =        F    use ultrasoft PP ?                                                          
   IUNSCR =        0    unscreen: 0-lin 1-nonlin 2-no                                               
   RPACOR =    0.000    partial core radius                                                         
   POMASS =    1.000; ZVAL   =    1.000    mass and valenz                                          
   RCORE  =    0.800    outmost cutoff radius                                                       
   RWIGS  =    0.700; RWIGS  =    0.370    wigner-seitz radius (au A)                               
   ENMAX  =  700.000; ENMIN  =  350.000 eV                                                          
   RCLOC  =    0.701    cutoff for local pot                                                        
   LCOR   =        T    correct aug charges                                                         
   LPAW   =        T    paw PP                                                                      
   EAUG   = 1000.000                                                                                
   RMAX   =    0.819    core radius for proj-oper                                                   
   RAUG   =    1.000    factor for augmentation sphere                                              
   RDEP   =    0.817    radius for radial grids                                                     
   RDEPT  =    0.817    core radius for aug-charge                                                  
                                                                                                    
   Atomic configuration                                                                             
    2 entries                                                                                       
     n  l   j            E        occ.                                                              
     1  0  0.50        -6.4927   1.0000                                                             
     2  1  0.50        -3.4015   0.0000                                                             
   Description                                                                                      
     l       E           TYP  RCUT    TYP  RCUT                                                     
     0     -6.4927493     23  0.800                                                                 
     0      6.8029130     23  0.800                                                                 
     1     -6.8029130     23  0.800                                                                 
  local pseudopotential read in
  atomic valenz-charges read in
  non local Contribution for L=           0  read in
    real space projection operators read in
  non local Contribution for L=           0  read in
    real space projection operators read in
  non local Contribution for L=           1  read in
    real space projection operators read in
    PAW grid and wavefunctions read in

   number of l-projection  operators is LMAX  =           3
   number of lm-projection operators is LMMAX =           5

 POTCAR:    PAW_PBE O_h 06Feb2004                 
   VRHFIN =O: s2p4                                                                                  
   LEXCH  = PE                                                                                      
   EATOM  =   432.3788 eV,   31.7789 Ry                                                             
                                                                                                    
   TITEL  = PAW_PBE O_h 06Feb2004                                                                   
   LULTRA =        F    use ultrasoft PP ?                                                          
   IUNSCR =        1    unscreen: 0-lin 1-nonlin 2-no                                               
   RPACOR =    0.800    partial core radius                                                         
   POMASS =   16.000; ZVAL   =    6.000    mass and valenz                                          
   RCORE  =    1.100    outmost cutoff radius                                                       
   RWIGS  =    1.400; RWIGS  =    0.741    wigner-seitz radius (au A)                               
   ENMAX  =  700.000; ENMIN  =  500.000 eV                                                          
   ICORE  =        2    local potential                                                             
   LCOR   =        T    correct aug charges                                                         
   LPAW   =        T    paw PP                                                                      
   EAUG   =  888.804                                                                                
   DEXC   =    0.000                                                                                
   RMAX   =    1.128    core radius for proj-oper                                                   
   RAUG   =    1.300    factor for augmentation sphere                                              
   RDEP   =    1.125    radius for radial grids                                                     
   RDEPT  =    1.088    core radius for aug-charge                                                  
                                                                                                    
   Atomic configuration                                                                             
    4 entries                                                                                       
     n  l   j            E        occ.                                                              
     1  0  0.50      -514.6923   2.0000                                                             
     2  0  0.50       -23.9615   2.0000                                                             
     2  1  0.50        -9.0305   4.0000                                                             
     3  2  1.50        -9.5241   0.0000                                                             
   Description                                                                                      
     l       E           TYP  RCUT    TYP  RCUT                                                     
     0    -23.9615319     23  1.100                                                                 
     0    -25.3221145     23  1.100                                                                 
     1     -9.0304911     23  1.100                                                                 
     1     -5.4802209     23  1.100                                                                 
     2     -9.5240782      7  1.100                                                                 
  local pseudopotential read in
  partial core-charges read in
  partial kinetic energy density read in
  atomic valenz-charges read in
  non local Contribution for L=           0  read in
    real space projection operators read in
  non local Contribution for L=           0  read in
    real space projection operators read in
  non local Contribution for L=           1  read in
    real space projection operators read in
  non local Contribution for L=           1  read in
    real space projection operators read in
    PAW grid and wavefunctions read in

   number of l-projection  operators is LMAX  =           4
   number of lm-projection operators is LMMAX =           8

 -----------------------------------------------------------------------------
|                                                                             |
|               ----> ADVICE to this user running VASP <----                  |
|                                                                             |
|     You have a (more or less) 'large supercell' and for larger cells it     |
|     might be more efficient to use real-space projection operators.         |
|     Therefore, try LREAL= Auto in the INCAR file.                           |
|     Mind: For very accurate calculation, you might also keep the            |
|     reciprocal projection scheme (i.e. LREAL=.FALSE.).                      |
|                                                                             |
 -----------------------------------------------------------------------------

 -----------------------------------------------------------------------------
|                                                                             |
|               ----> ADVICE to this user running VASP <----                  |
|                                                                             |
|     You enforced a specific xc type in the INCAR file but a different       |
|     type was found in the POTCAR file.                                      |
|     I HOPE YOU KNOW WHAT YOU ARE DOING!                                     |
|                                                                             |
 -----------------------------------------------------------------------------

  PAW_PBE C_h 06Feb2004                 :
 energy of atom  1       EATOM= -147.1560
 kinetic energy error for atom=    0.0031 (will be added to EATOM!!)
  PAW_PBE H_h 06Feb2004                 :
 energy of atom  2       EATOM=  -12.4884
 kinetic energy error for atom=    0.0006 (will be added to EATOM!!)
  PAW_PBE O_h 06Feb2004                 :
 energy of atom  3       EATOM= -432.3788
 kinetic energy error for atom=    0.0171 (will be added to EATOM!!)


 POSCAR: super cell
  positions in direct lattice
  No initial velocities read in
 exchange correlation table for  LEXCH =       44
   RHO(1)=    0.500       N(1)  =     2000
   RHO(2)=  100.500       N(2)  =     4000



--------------------------------------------------------------------------------------------------------


 ion  position               nearest neighbor table
   1  0.168  0.231  0.052- 673 1.24 577 1.35  97 1.51
   2  0.668  0.231  0.052- 674 1.24 578 1.35  98 1.51
   3  0.168  0.564  0.052- 675 1.24 579 1.35  99 1.51
   4  0.668  0.564  0.052- 676 1.24 580 1.35 100 1.51
   5  0.168  0.898  0.052- 677 1.24 581 1.35 101 1.51
   6  0.668  0.898  0.052- 678 1.24 582 1.35 102 1.51
   7  0.168  0.231  0.302- 679 1.24 583 1.35 103 1.51
   8  0.668  0.231  0.302- 680 1.24 584 1.35 104 1.51
   9  0.168  0.564  0.302- 681 1.24 585 1.35 105 1.51
  10  0.668  0.564  0.302- 682 1.24 586 1.35 106 1.51
  11  0.168  0.898  0.302- 683 1.24 587 1.35 107 1.51
  12  0.668  0.898  0.302- 684 1.24 588 1.35 108 1.51
  13  0.168  0.231  0.552- 685 1.24 589 1.35 109 1.51
  14  0.668  0.231  0.552- 686 1.24 590 1.35 110 1.51
  15  0.168  0.564  0.552- 687 1.24 591 1.35 111 1.51
  16  0.668  0.564  0.552- 688 1.24 592 1.35 112 1.51
  17  0.168  0.898  0.552- 689 1.24 593 1.35 113 1.51
  18  0.668  0.898  0.552- 690 1.24 594 1.35 114 1.51
  19  0.168  0.231  0.802- 691 1.24 595 1.35 115 1.51
  20  0.668  0.231  0.802- 692 1.24 596 1.35 116 1.51
  21  0.168  0.564  0.802- 693 1.24 597 1.35 117 1.51
  22  0.668  0.564  0.802- 694 1.24 598 1.35 118 1.51
  23  0.168  0.898  0.802- 695 1.24 599 1.35 119 1.51
  24  0.668  0.898  0.802- 696 1.24 600 1.35 120 1.51
  25  0.332  0.102  0.177- 697 1.24 601 1.35 121 1.51
  26  0.832  0.102  0.177- 698 1.24 602 1.35 122 1.51
  27  0.332  0.436  0.177- 699 1.24 603 1.35 123 1.51
  28  0.832  0.436  0.177- 700 1.24 604 1.35 124 1.51
  29  0.332  0.769  0.177- 701 1.24 605 1.35 125 1.51
  30  0.832  0.769  0.177- 702 1.24 606 1.35 126 1.51
  31  0.332  0.102  0.427- 703 1.24 607 1.35 127 1.51
  32  0.832  0.102  0.427- 704 1.24 608 1.35 128 1.51
  33  0.332  0.436  0.427- 705 1.24 609 1.35 129 1.51
  34  0.832  0.436  0.427- 706 1.24 610 1.35 130 1.51
  35  0.332  0.769  0.427- 707 1.24 611 1.35 131 1.51
  36  0.832  0.769  0.427- 708 1.24 612 1.35 132 1.51
  37  0.332  0.102  0.677- 709 1.24 613 1.35 133 1.51
  38  0.832  0.102  0.677- 710 1.24 614 1.35 134 1.51
  39  0.332  0.436  0.677- 711 1.24 615 1.35 135 1.51
  40  0.832  0.436  0.677- 712 1.24 616 1.35 136 1.51
  41  0.332  0.769  0.677- 713 1.24 617 1.35 137 1.51
  42  0.832  0.769  0.677- 714 1.24 618 1.35 138 1.51
  43  0.332  0.102  0.927- 715 1.24 619 1.35 139 1.51
  44  0.832  0.102  0.927- 716 1.24 620 1.35 140 1.51
  45  0.332  0.436  0.927- 717 1.24 621 1.35 141 1.51
  46  0.832  0.436  0.927- 718 1.24 622 1.35 142 1.51
  47  0.332  0.769  0.927- 719 1.24 623 1.35 143 1.51
  48  0.832  0.769  0.927- 720 1.24 624 1.35 144 1.51
  49  0.418  0.269  0.052- 721 1.24 625 1.35 145 1.51
  50  0.918  0.269  0.052- 722 1.24 626 1.35 146 1.51
  51  0.418  0.602  0.052- 723 1.24 627 1.35 147 1.51
  52  0.918  0.602  0.052- 724 1.24 628 1.35 148 1.51
  53  0.418  0.936  0.052- 725 1.24 629 1.35 149 1.51
  54  0.918  0.936  0.052- 726 1.24 630 1.35 150 1.51
  55  0.418  0.269  0.302- 727 1.24 631 1.35 151 1.51
  56  0.918  0.269  0.302- 728 1.24 632 1.35 152 1.51
  57  0.418  0.602  0.302- 729 1.24 633 1.35 153 1.51
  58  0.918  0.602  0.302- 730 1.24 634 1.35 154 1.51
  59  0.418  0.936  0.302- 731 1.24 635 1.35 155 1.51
  60  0.918  0.936  0.302- 732 1.24 636 1.35 156 1.51
  61  0.418  0.269  0.552- 733 1.24 637 1.35 157 1.51
  62  0.918  0.269  0.552- 734 1.24 638 1.35 158 1.51
  63  0.418  0.602  0.552- 735 1.24 639 1.35 159 1.51
  64  0.918  0.602  0.552- 736 1.24 640 1.35 160 1.51
  65  0.418  0.936  0.552- 737 1.24 641 1.35 161 1.51
  66  0.918  0.936  0.552- 738 1.24 642 1.35 162 1.51
  67  0.418  0.269  0.802- 739 1.24 643 1.35 163 1.51
  68  0.918  0.269  0.802- 740 1.24 644 1.35 164 1.51
  69  0.418  0.602  0.802- 741 1.24 645 1.35 165 1.51
  70  0.918  0.602  0.802- 742 1.24 646 1.35 166 1.51
  71  0.418  0.936  0.802- 743 1.24 647 1.35 167 1.51
  72  0.918  0.936  0.802- 744 1.24 648 1.35 168 1.51
  73  0.082  0.064  0.177- 745 1.24 649 1.35 169 1.51
  74  0.582  0.064  0.177- 746 1.24 650 1.35 170 1.51
  75  0.082  0.398  0.177- 747 1.24 651 1.35 171 1.51
  76  0.582  0.398  0.177- 748 1.24 652 1.35 172 1.51
  77  0.082  0.731  0.177- 749 1.24 653 1.35 173 1.51
  78  0.582  0.731  0.177- 750 1.24 654 1.35 174 1.51
  79  0.082  0.064  0.427- 751 1.24 655 1.35 175 1.51
  80  0.582  0.064  0.427- 752 1.24 656 1.35 176 1.51
  81  0.082  0.398  0.427- 753 1.24 657 1.35 177 1.51
  82  0.582  0.398  0.427- 754 1.24 658 1.35 178 1.51
  83  0.082  0.731  0.427- 755 1.24 659 1.35 179 1.51
  84  0.582  0.731  0.427- 756 1.24 660 1.35 180 1.51
  85  0.082  0.064  0.677- 757 1.24 661 1.35 181 1.51
  86  0.582  0.064  0.677- 758 1.24 662 1.35 182 1.51
  87  0.082  0.398  0.677- 759 1.24 663 1.35 183 1.51
  88  0.582  0.398  0.677- 760 1.24 664 1.35 184 1.51
  89  0.082  0.731  0.677- 761 1.24 665 1.35 185 1.51
  90  0.582  0.731  0.677- 762 1.24 666 1.35 186 1.51
  91  0.082  0.064  0.927- 763 1.24 667 1.35 187 1.51
  92  0.582  0.064  0.927- 764 1.24 668 1.35 188 1.51
  93  0.082  0.398  0.927- 765 1.24 669 1.35 189 1.51
  94  0.582  0.398  0.927- 766 1.24 670 1.35 190 1.51
  95  0.082  0.731  0.927- 767 1.24 671 1.35 191 1.51
  96  0.582  0.731  0.927- 768 1.24 672 1.35 192 1.51
  97  0.206  0.205  0.099- 289 1.09 481 1.09 385 1.09   1 1.51
  98  0.706  0.205  0.099- 290 1.09 482 1.09 386 1.09   2 1.51
  99  0.206  0.538  0.099- 291 1.09 483 1.09 387 1.09   3 1.51
 100  0.706  0.538  0.099- 292 1.09 484 1.09 388 1.09   4 1.51
 101  0.206  0.871  0.099- 293 1.09 485 1.09 389 1.09   5 1.51
 102  0.706  0.871  0.099- 294 1.09 486 1.09 390 1.09   6 1.51
 103  0.206  0.205  0.349- 295 1.09 487 1.09 391 1.09   7 1.51
 104  0.706  0.205  0.349- 296 1.09 488 1.09 392 1.09   8 1.51
 105  0.206  0.538  0.349- 297 1.09 489 1.09 393 1.09   9 1.51
 106  0.706  0.538  0.349- 298 1.09 490 1.09 394 1.09  10 1.51
 107  0.206  0.871  0.349- 299 1.09 491 1.09 395 1.09  11 1.51
 108  0.706  0.871  0.349- 300 1.09 492 1.09 396 1.09  12 1.51
 109  0.206  0.205  0.599- 301 1.09 493 1.09 397 1.09  13 1.51
 110  0.706  0.205  0.599- 302 1.09 494 1.09 398 1.09  14 1.51
 111  0.206  0.538  0.599- 303 1.09 495 1.09 399 1.09  15 1.51
 112  0.706  0.538  0.599- 304 1.09 496 1.09 400 1.09  16 1.51
 113  0.206  0.871  0.599- 305 1.09 497 1.09 401 1.09  17 1.51
 114  0.706  0.871  0.599- 306 1.09 498 1.09 402 1.09  18 1.51
 115  0.206  0.205  0.849- 307 1.09 499 1.09 403 1.09  19 1.51
 116  0.706  0.205  0.849- 308 1.09 500 1.09 404 1.09  20 1.51
 117  0.206  0.538  0.849- 309 1.09 501 1.09 405 1.09  21 1.51
 118  0.706  0.538  0.849- 310 1.09 502 1.09 406 1.09  22 1.51
 119  0.206  0.871  0.849- 311 1.09 503 1.09 407 1.09  23 1.51
 120  0.706  0.871  0.849- 312 1.09 504 1.09 408 1.09  24 1.51
 121  0.294  0.129  0.224- 319 1.09 505 1.09 409 1.09  25 1.51
 122  0.794  0.129  0.224- 320 1.09 506 1.09 410 1.09  26 1.51
 123  0.294  0.462  0.224- 321 1.09 507 1.09 411 1.09  27 1.51
 124  0.794  0.462  0.224- 322 1.09 508 1.09 412 1.09  28 1.51
 125  0.294  0.795  0.224- 323 1.09 509 1.09 413 1.09  29 1.51
 126  0.794  0.795  0.224- 324 1.09 510 1.09 414 1.09  30 1.51
 127  0.294  0.129  0.474- 325 1.09 511 1.09 415 1.09  31 1.51
 128  0.794  0.129  0.474- 326 1.09 512 1.09 416 1.09  32 1.51
 129  0.294  0.462  0.474- 327 1.09 513 1.09 417 1.09  33 1.51
 130  0.794  0.462  0.474- 328 1.09 514 1.09 418 1.09  34 1.51
 131  0.294  0.795  0.474- 329 1.09 515 1.09 419 1.09  35 1.51
 132  0.794  0.795  0.474- 330 1.09 516 1.09 420 1.09  36 1.51
 133  0.294  0.129  0.724- 331 1.09 517 1.09 421 1.09  37 1.51
 134  0.794  0.129  0.724- 332 1.09 518 1.09 422 1.09  38 1.51
 135  0.294  0.462  0.724- 333 1.09 519 1.09 423 1.09  39 1.51
 136  0.794  0.462  0.724- 334 1.09 520 1.09 424 1.09  40 1.51
 137  0.294  0.795  0.724- 335 1.09 521 1.09 425 1.09  41 1.51
 138  0.794  0.795  0.724- 336 1.09 522 1.09 426 1.09  42 1.51
 139  0.294  0.129  0.974- 313 1.09 523 1.09 427 1.09  43 1.51
 140  0.794  0.129  0.974- 314 1.09 524 1.09 428 1.09  44 1.51
 141  0.294  0.462  0.974- 315 1.09 525 1.09 429 1.09  45 1.51
 142  0.794  0.462  0.974- 316 1.09 526 1.09 430 1.09  46 1.51
 143  0.294  0.795  0.974- 317 1.09 527 1.09 431 1.09  47 1.51
 144  0.794  0.795  0.974- 318 1.09 528 1.09 432 1.09  48 1.51
 145  0.456  0.295  0.099- 339 1.09 529 1.09 435 1.09  49 1.51
 146  0.956  0.295  0.099- 340 1.09 530 1.09 436 1.09  50 1.51
 147  0.456  0.629  0.099- 341 1.09 531 1.09 437 1.09  51 1.51
 148  0.956  0.629  0.099- 342 1.09 532 1.09 438 1.09  52 1.51
 149  0.456  0.962  0.099- 337 1.09 533 1.09 433 1.09  53 1.51
 150  0.956  0.962  0.099- 338 1.09 534 1.09 434 1.09  54 1.51
 151  0.456  0.295  0.349- 345 1.09 535 1.09 441 1.09  55 1.51
 152  0.956  0.295  0.349- 346 1.09 536 1.09 442 1.09  56 1.51
 153  0.456  0.629  0.349- 347 1.09 537 1.09 443 1.09  57 1.51
 154  0.956  0.629  0.349- 348 1.09 538 1.09 444 1.09  58 1.51
 155  0.456  0.962  0.349- 343 1.09 539 1.09 439 1.09  59 1.51
 156  0.956  0.962  0.349- 344 1.09 540 1.09 440 1.09  60 1.51
 157  0.456  0.295  0.599- 351 1.09 541 1.09 447 1.09  61 1.51
 158  0.956  0.295  0.599- 352 1.09 542 1.09 448 1.09  62 1.51
 159  0.456  0.629  0.599- 353 1.09 543 1.09 449 1.09  63 1.51
 160  0.956  0.629  0.599- 354 1.09 544 1.09 450 1.09  64 1.51
 161  0.456  0.962  0.599- 349 1.09 545 1.09 445 1.09  65 1.51
 162  0.956  0.962  0.599- 350 1.09 546 1.09 446 1.09  66 1.51
 163  0.456  0.295  0.849- 357 1.09 547 1.09 453 1.09  67 1.51
 164  0.956  0.295  0.849- 358 1.09 548 1.09 454 1.09  68 1.51
 165  0.456  0.629  0.849- 359 1.09 549 1.09 455 1.09  69 1.51
 166  0.956  0.629  0.849- 360 1.09 550 1.09 456 1.09  70 1.51
 167  0.456  0.962  0.849- 355 1.09 551 1.09 451 1.09  71 1.51
 168  0.956  0.962  0.849- 356 1.09 552 1.09 452 1.09  72 1.51
 169  0.044  0.038  0.224- 371 1.09 553 1.09 461 1.09  73 1.51
 170  0.544  0.038  0.224- 372 1.09 554 1.09 462 1.09  74 1.51
 171  0.044  0.371  0.224- 367 1.09 555 1.09 457 1.09  75 1.51
 172  0.544  0.371  0.224- 368 1.09 556 1.09 458 1.09  76 1.51
 173  0.044  0.705  0.224- 369 1.09 557 1.09 459 1.09  77 1.51
 174  0.544  0.705  0.224- 370 1.09 558 1.09 460 1.09  78 1.51
 175  0.044  0.038  0.474- 377 1.09 559 1.09 467 1.09  79 1.51
 176  0.544  0.038  0.474- 378 1.09 560 1.09 468 1.09  80 1.51
 177  0.044  0.371  0.474- 373 1.09 561 1.09 463 1.09  81 1.51
 178  0.544  0.371  0.474- 374 1.09 562 1.09 464 1.09  82 1.51
 179  0.044  0.705  0.474- 375 1.09 563 1.09 465 1.09  83 1.51
 180  0.544  0.705  0.474- 376 1.09 564 1.09 466 1.09  84 1.51
 181  0.044  0.038  0.724- 383 1.09 565 1.09 473 1.09  85 1.51
 182  0.544  0.038  0.724- 384 1.09 566 1.09 474 1.09  86 1.51
 183  0.044  0.371  0.724- 379 1.09 567 1.09 469 1.09  87 1.51
 184  0.544  0.371  0.724- 380 1.09 568 1.09 470 1.09  88 1.51
 185  0.044  0.705  0.724- 381 1.09 569 1.09 471 1.09  89 1.51
 186  0.544  0.705  0.724- 382 1.09 570 1.09 472 1.09  90 1.51
 187  0.044  0.038  0.974- 365 1.09 571 1.09 479 1.09  91 1.51
 188  0.544  0.038  0.974- 366 1.09 572 1.09 480 1.09  92 1.51
 189  0.044  0.371  0.974- 361 1.09 573 1.09 475 1.09  93 1.51
 190  0.544  0.371  0.974- 362 1.09 574 1.09 476 1.09  94 1.51
 191  0.044  0.705  0.974- 363 1.09 575 1.09 477 1.09  95 1.51
 192  0.544  0.705  0.974- 364 1.09 576 1.09 478 1.09  96 1.51
 193  0.162  0.313  0.231- 583 1.00
 194  0.662  0.313  0.231- 584 1.00
 195  0.162  0.647  0.231- 585 1.00
 196  0.662  0.647  0.231- 586 1.00
 197  0.162  0.980  0.231- 587 1.00
 198  0.662  0.980  0.231- 588 1.00
 199  0.162  0.313  0.481- 589 1.00
 200  0.662  0.313  0.481- 590 1.00
 201  0.162  0.647  0.481- 591 1.00
 202  0.662  0.647  0.481- 592 1.00
 203  0.162  0.980  0.481- 593 1.00
 204  0.662  0.980  0.481- 594 1.00
 205  0.162  0.313  0.731- 595 1.00
 206  0.662  0.313  0.731- 596 1.00
 207  0.162  0.647  0.731- 597 1.00
 208  0.662  0.647  0.731- 598 1.00
 209  0.162  0.980  0.731- 599 1.00
 210  0.662  0.980  0.731- 600 1.00
 211  0.162  0.313  0.981- 577 1.00
 212  0.662  0.313  0.981- 578 1.00
 213  0.162  0.647  0.981- 579 1.00
 214  0.662  0.647  0.981- 580 1.00
 215  0.162  0.980  0.981- 581 1.00
 216  0.662  0.980  0.981- 582 1.00
 217  0.338  0.020  0.106- 601 1.00
 218  0.838  0.020  0.106- 602 1.00
 219  0.338  0.353  0.106- 603 1.00
 220  0.838  0.353  0.106- 604 1.00
 221  0.338  0.687  0.106- 605 1.00
 222  0.838  0.687  0.106- 606 1.00
 223  0.338  0.020  0.356- 607 1.00
 224  0.838  0.020  0.356- 608 1.00
 225  0.338  0.353  0.356- 609 1.00
 226  0.838  0.353  0.356- 610 1.00
 227  0.338  0.687  0.356- 611 1.00
 228  0.838  0.687  0.356- 612 1.00
 229  0.338  0.020  0.606- 613 1.00
 230  0.838  0.020  0.606- 614 1.00
 231  0.338  0.353  0.606- 615 1.00
 232  0.838  0.353  0.606- 616 1.00
 233  0.338  0.687  0.606- 617 1.00
 234  0.838  0.687  0.606- 618 1.00
 235  0.338  0.020  0.856- 619 1.00
 236  0.838  0.020  0.856- 620 1.00
 237  0.338  0.353  0.856- 621 1.00
 238  0.838  0.353  0.856- 622 1.00
 239  0.338  0.687  0.856- 623 1.00
 240  0.838  0.687  0.856- 624 1.00
 241  0.412  0.187  0.231- 631 1.00
 242  0.912  0.187  0.231- 632 1.00
 243  0.412  0.520  0.231- 633 1.00
 244  0.912  0.520  0.231- 634 1.00
 245  0.412  0.853  0.231- 635 1.00
 246  0.912  0.853  0.231- 636 1.00
 247  0.412  0.187  0.481- 637 1.00
 248  0.912  0.187  0.481- 638 1.00
 249  0.412  0.520  0.481- 639 1.00
 250  0.912  0.520  0.481- 640 1.00
 251  0.412  0.853  0.481- 641 1.00
 252  0.912  0.853  0.481- 642 1.00
 253  0.412  0.187  0.731- 643 1.00
 254  0.912  0.187  0.731- 644 1.00
 255  0.412  0.520  0.731- 645 1.00
 256  0.912  0.520  0.731- 646 1.00
 257  0.412  0.853  0.731- 647 1.00
 258  0.912  0.853  0.731- 648 1.00
 259  0.412  0.187  0.981- 625 1.00
 260  0.912  0.187  0.981- 626 1.00
 261  0.412  0.520  0.981- 627 1.00
 262  0.912  0.520  0.981- 628 1.00
 263  0.412  0.853  0.981- 629 1.00
 264  0.912  0.853  0.981- 630 1.00
 265  0.088  0.147  0.106- 649 1.00
 266  0.588  0.147  0.106- 650 1.00
 267  0.088  0.480  0.106- 651 1.00
 268  0.588  0.480  0.106- 652 1.00
 269  0.088  0.813  0.106- 653 1.00
 270  0.588  0.813  0.106- 654 1.00
 271  0.088  0.147  0.356- 655 1.00
 272  0.588  0.147  0.356- 656 1.00
 273  0.088  0.480  0.356- 657 1.00
 274  0.588  0.480  0.356- 658 1.00
 275  0.088  0.813  0.356- 659 1.00
 276  0.588  0.813  0.356- 660 1.00
 277  0.088  0.147  0.606- 661 1.00
 278  0.588  0.147  0.606- 662 1.00
 279  0.088  0.480  0.606- 663 1.00
 280  0.588  0.480  0.606- 664 1.00
 281  0.088  0.813  0.606- 665 1.00
 282  0.588  0.813  0.606- 666 1.00
 283  0.088  0.147  0.856- 667 1.00
 284  0.588  0.147  0.856- 668 1.00
 285  0.088  0.480  0.856- 669 1.00
 286  0.588  0.480  0.856- 670 1.00
 287  0.088  0.813  0.856- 671 1.00
 288  0.588  0.813  0.856- 672 1.00
 289  0.187  0.159  0.134-  97 1.09
 290  0.687  0.159  0.134-  98 1.09
 291  0.187  0.493  0.134-  99 1.09
 292  0.687  0.493  0.134- 100 1.09
 293  0.187  0.826  0.134- 101 1.09
 294  0.687  0.826  0.134- 102 1.09
 295  0.187  0.159  0.384- 103 1.09
 296  0.687  0.159  0.384- 104 1.09
 297  0.187  0.493  0.384- 105 1.09
 298  0.687  0.493  0.384- 106 1.09
 299  0.187  0.826  0.384- 107 1.09
 300  0.687  0.826  0.384- 108 1.09
 301  0.187  0.159  0.634- 109 1.09
 302  0.687  0.159  0.634- 110 1.09
 303  0.187  0.493  0.634- 111 1.09
 304  0.687  0.493  0.634- 112 1.09
 305  0.187  0.826  0.634- 113 1.09
 306  0.687  0.826  0.634- 114 1.09
 307  0.187  0.159  0.884- 115 1.09
 308  0.687  0.159  0.884- 116 1.09
 309  0.187  0.493  0.884- 117 1.09
 310  0.687  0.493  0.884- 118 1.09
 311  0.187  0.826  0.884- 119 1.09
 312  0.687  0.826  0.884- 120 1.09
 313  0.313  0.174  0.009- 139 1.09
 314  0.813  0.174  0.009- 140 1.09
 315  0.313  0.507  0.009- 141 1.09
 316  0.813  0.507  0.009- 142 1.09
 317  0.313  0.841  0.009- 143 1.09
 318  0.813  0.841  0.009- 144 1.09
 319  0.313  0.174  0.259- 121 1.09
 320  0.813  0.174  0.259- 122 1.09
 321  0.313  0.507  0.259- 123 1.09
 322  0.813  0.507  0.259- 124 1.09
 323  0.313  0.841  0.259- 125 1.09
 324  0.813  0.841  0.259- 126 1.09
 325  0.313  0.174  0.509- 127 1.09
 326  0.813  0.174  0.509- 128 1.09
 327  0.313  0.507  0.509- 129 1.09
 328  0.813  0.507  0.509- 130 1.09
 329  0.313  0.841  0.509- 131 1.09
 330  0.813  0.841  0.509- 132 1.09
 331  0.313  0.174  0.759- 133 1.09
 332  0.813  0.174  0.759- 134 1.09
 333  0.313  0.507  0.759- 135 1.09
 334  0.813  0.507  0.759- 136 1.09
 335  0.313  0.841  0.759- 137 1.09
 336  0.813  0.841  0.759- 138 1.09
 337  0.437  0.007  0.134- 149 1.09
 338  0.937  0.007  0.134- 150 1.09
 339  0.437  0.341  0.134- 145 1.09
 340  0.937  0.341  0.134- 146 1.09
 341  0.437  0.674  0.134- 147 1.09
 342  0.937  0.674  0.134- 148 1.09
 343  0.437  0.007  0.384- 155 1.09
 344  0.937  0.007  0.384- 156 1.09
 345  0.437  0.341  0.384- 151 1.09
 346  0.937  0.341  0.384- 152 1.09
 347  0.437  0.674  0.384- 153 1.09
 348  0.937  0.674  0.384- 154 1.09
 349  0.437  0.007  0.634- 161 1.09
 350  0.937  0.007  0.634- 162 1.09
 351  0.437  0.341  0.634- 157 1.09
 352  0.937  0.341  0.634- 158 1.09
 353  0.437  0.674  0.634- 159 1.09
 354  0.937  0.674  0.634- 160 1.09
 355  0.437  0.007  0.884- 167 1.09
 356  0.937  0.007  0.884- 168 1.09
 357  0.437  0.341  0.884- 163 1.09
 358  0.937  0.341  0.884- 164 1.09
 359  0.437  0.674  0.884- 165 1.09
 360  0.937  0.674  0.884- 166 1.09
 361  0.063  0.326  0.009- 189 1.09
 362  0.563  0.326  0.009- 190 1.09
 363  0.063  0.659  0.009- 191 1.09
 364  0.563  0.659  0.009- 192 1.09
 365  0.063  0.993  0.009- 187 1.09
 366  0.563  0.993  0.009- 188 1.09
 367  0.063  0.326  0.259- 171 1.09
 368  0.563  0.326  0.259- 172 1.09
 369  0.063  0.659  0.259- 173 1.09
 370  0.563  0.659  0.259- 174 1.09
 371  0.063  0.993  0.259- 169 1.09
 372  0.563  0.993  0.259- 170 1.09
 373  0.063  0.326  0.509- 177 1.09
 374  0.563  0.326  0.509- 178 1.09
 375  0.063  0.659  0.509- 179 1.09
 376  0.563  0.659  0.509- 180 1.09
 377  0.063  0.993  0.509- 175 1.09
 378  0.563  0.993  0.509- 176 1.09
 379  0.063  0.326  0.759- 183 1.09
 380  0.563  0.326  0.759- 184 1.09
 381  0.063  0.659  0.759- 185 1.09
 382  0.563  0.659  0.759- 186 1.09
 383  0.063  0.993  0.759- 181 1.09
 384  0.563  0.993  0.759- 182 1.09
 385  0.236  0.153  0.082-  97 1.09
 386  0.736  0.153  0.082-  98 1.09
 387  0.236  0.486  0.082-  99 1.09
 388  0.736  0.486  0.082- 100 1.09
 389  0.236  0.819  0.082- 101 1.09
 390  0.736  0.819  0.082- 102 1.09
 391  0.236  0.153  0.332- 103 1.09
 392  0.736  0.153  0.332- 104 1.09
 393  0.236  0.486  0.332- 105 1.09
 394  0.736  0.486  0.332- 106 1.09
 395  0.236  0.819  0.332- 107 1.09
 396  0.736  0.819  0.332- 108 1.09
 397  0.236  0.153  0.582- 109 1.09
 398  0.736  0.153  0.582- 110 1.09
 399  0.236  0.486  0.582- 111 1.09
 400  0.736  0.486  0.582- 112 1.09
 401  0.236  0.819  0.582- 113 1.09
 402  0.736  0.819  0.582- 114 1.09
 403  0.236  0.153  0.832- 115 1.09
 404  0.736  0.153  0.832- 116 1.09
 405  0.236  0.486  0.832- 117 1.09
 406  0.736  0.486  0.832- 118 1.09
 407  0.236  0.819  0.832- 119 1.09
 408  0.736  0.819  0.832- 120 1.09
 409  0.264  0.181  0.207- 121 1.09
 410  0.764  0.181  0.207- 122 1.09
 411  0.264  0.514  0.207- 123 1.09
 412  0.764  0.514  0.207- 124 1.09
 413  0.264  0.847  0.207- 125 1.09
 414  0.764  0.847  0.207- 126 1.09
 415  0.264  0.181  0.457- 127 1.09
 416  0.764  0.181  0.457- 128 1.09
 417  0.264  0.514  0.457- 129 1.09
 418  0.764  0.514  0.457- 130 1.09
 419  0.264  0.847  0.457- 131 1.09
 420  0.764  0.847  0.457- 132 1.09
 421  0.264  0.181  0.707- 133 1.09
 422  0.764  0.181  0.707- 134 1.09
 423  0.264  0.514  0.707- 135 1.09
 424  0.764  0.514  0.707- 136 1.09
 425  0.264  0.847  0.707- 137 1.09
 426  0.764  0.847  0.707- 138 1.09
 427  0.264  0.181  0.957- 139 1.09
 428  0.764  0.181  0.957- 140 1.09
 429  0.264  0.514  0.957- 141 1.09
 430  0.764  0.514  0.957- 142 1.09
 431  0.264  0.847  0.957- 143 1.09
 432  0.764  0.847  0.957- 144 1.09
 433  0.486  0.014  0.082- 149 1.09
 434  0.986  0.014  0.082- 150 1.09
 435  0.486  0.347  0.082- 145 1.09
 436  0.986  0.347  0.082- 146 1.09
 437  0.486  0.681  0.082- 147 1.09
 438  0.986  0.681  0.082- 148 1.09
 439  0.486  0.014  0.332- 155 1.09
 440  0.986  0.014  0.332- 156 1.09
 441  0.486  0.347  0.332- 151 1.09
 442  0.986  0.347  0.332- 152 1.09
 443  0.486  0.681  0.332- 153 1.09
 444  0.986  0.681  0.332- 154 1.09
 445  0.486  0.014  0.582- 161 1.09
 446  0.986  0.014  0.582- 162 1.09
 447  0.486  0.347  0.582- 157 1.09
 448  0.986  0.347  0.582- 158 1.09
 449  0.486  0.681  0.582- 159 1.09
 450  0.986  0.681  0.582- 160 1.09
 451  0.486  0.014  0.832- 167 1.09
 452  0.986  0.014  0.832- 168 1.09
 453  0.486  0.347  0.832- 163 1.09
 454  0.986  0.347  0.832- 164 1.09
 455  0.486  0.681  0.832- 165 1.09
 456  0.986  0.681  0.832- 166 1.09
 457  0.014  0.319  0.207- 171 1.09
 458  0.514  0.319  0.207- 172 1.09
 459  0.014  0.653  0.207- 173 1.09
 460  0.514  0.653  0.207- 174 1.09
 461  0.014  0.986  0.207- 169 1.09
 462  0.514  0.986  0.207- 170 1.09
 463  0.014  0.319  0.457- 177 1.09
 464  0.514  0.319  0.457- 178 1.09
 465  0.014  0.653  0.457- 179 1.09
 466  0.514  0.653  0.457- 180 1.09
 467  0.014  0.986  0.457- 175 1.09
 468  0.514  0.986  0.457- 176 1.09
 469  0.014  0.319  0.707- 183 1.09
 470  0.514  0.319  0.707- 184 1.09
 471  0.014  0.653  0.707- 185 1.09
 472  0.514  0.653  0.707- 186 1.09
 473  0.014  0.986  0.707- 181 1.09
 474  0.514  0.986  0.707- 182 1.09
 475  0.014  0.319  0.957- 189 1.09
 476  0.514  0.319  0.957- 190 1.09
 477  0.014  0.653  0.957- 191 1.09
 478  0.514  0.653  0.957- 192 1.09
 479  0.014  0.986  0.957- 187 1.09
 480  0.514  0.986  0.957- 188 1.09
 481  0.223  0.283  0.115-  97 1.09
 482  0.723  0.283  0.115-  98 1.09
 483  0.223  0.616  0.115-  99 1.09
 484  0.723  0.616  0.115- 100 1.09
 485  0.223  0.950  0.115- 101 1.09
 486  0.723  0.950  0.115- 102 1.09
 487  0.223  0.283  0.365- 103 1.09
 488  0.723  0.283  0.365- 104 1.09
 489  0.223  0.616  0.365- 105 1.09
 490  0.723  0.616  0.365- 106 1.09
 491  0.223  0.950  0.365- 107 1.09
 492  0.723  0.950  0.365- 108 1.09
 493  0.223  0.283  0.615- 109 1.09
 494  0.723  0.283  0.615- 110 1.09
 495  0.223  0.616  0.615- 111 1.09
 496  0.723  0.616  0.615- 112 1.09
 497  0.223  0.950  0.615- 113 1.09
 498  0.723  0.950  0.615- 114 1.09
 499  0.223  0.283  0.865- 115 1.09
 500  0.723  0.283  0.865- 116 1.09
 501  0.223  0.616  0.865- 117 1.09
 502  0.723  0.616  0.865- 118 1.09
 503  0.223  0.950  0.865- 119 1.09
 504  0.723  0.950  0.865- 120 1.09
 505  0.277  0.050  0.240- 121 1.09
 506  0.777  0.050  0.240- 122 1.09
 507  0.277  0.384  0.240- 123 1.09
 508  0.777  0.384  0.240- 124 1.09
 509  0.277  0.717  0.240- 125 1.09
 510  0.777  0.717  0.240- 126 1.09
 511  0.277  0.050  0.490- 127 1.09
 512  0.777  0.050  0.490- 128 1.09
 513  0.277  0.384  0.490- 129 1.09
 514  0.777  0.384  0.490- 130 1.09
 515  0.277  0.717  0.490- 131 1.09
 516  0.777  0.717  0.490- 132 1.09
 517  0.277  0.050  0.740- 133 1.09
 518  0.777  0.050  0.740- 134 1.09
 519  0.277  0.384  0.740- 135 1.09
 520  0.777  0.384  0.740- 136 1.09
 521  0.277  0.717  0.740- 137 1.09
 522  0.777  0.717  0.740- 138 1.09
 523  0.277  0.050  0.990- 139 1.09
 524  0.777  0.050  0.990- 140 1.09
 525  0.277  0.384  0.990- 141 1.09
 526  0.777  0.384  0.990- 142 1.09
 527  0.277  0.717  0.990- 143 1.09
 528  0.777  0.717  0.990- 144 1.09
 529  0.473  0.217  0.115- 145 1.09
 530  0.973  0.217  0.115- 146 1.09
 531  0.473  0.550  0.115- 147 1.09
 532  0.973  0.550  0.115- 148 1.09
 533  0.473  0.884  0.115- 149 1.09
 534  0.973  0.884  0.115- 150 1.09
 535  0.473  0.217  0.365- 151 1.09
 536  0.973  0.217  0.365- 152 1.09
 537  0.473  0.550  0.365- 153 1.09
 538  0.973  0.550  0.365- 154 1.09
 539  0.473  0.884  0.365- 155 1.09
 540  0.973  0.884  0.365- 156 1.09
 541  0.473  0.217  0.615- 157 1.09
 542  0.973  0.217  0.615- 158 1.09
 543  0.473  0.550  0.615- 159 1.09
 544  0.973  0.550  0.615- 160 1.09
 545  0.473  0.884  0.615- 161 1.09
 546  0.973  0.884  0.615- 162 1.09
 547  0.473  0.217  0.865- 163 1.09
 548  0.973  0.217  0.865- 164 1.09
 549  0.473  0.550  0.865- 165 1.09
 550  0.973  0.550  0.865- 166 1.09
 551  0.473  0.884  0.865- 167 1.09
 552  0.973  0.884  0.865- 168 1.09
 553  0.027  0.116  0.240- 169 1.09
 554  0.527  0.116  0.240- 170 1.09
 555  0.027  0.450  0.240- 171 1.09
 556  0.527  0.450  0.240- 172 1.09
 557  0.027  0.783  0.240- 173 1.09
 558  0.527  0.783  0.240- 174 1.09
 559  0.027  0.116  0.490- 175 1.09
 560  0.527  0.116  0.490- 176 1.09
 561  0.027  0.450  0.490- 177 1.09
 562  0.527  0.450  0.490- 178 1.09
 563  0.027  0.783  0.490- 179 1.09
 564  0.527  0.783  0.490- 180 1.09
 565  0.027  0.116  0.740- 181 1.09
 566  0.527  0.116  0.740- 182 1.09
 567  0.027  0.450  0.740- 183 1.09
 568  0.527  0.450  0.740- 184 1.09
 569  0.027  0.783  0.740- 185 1.09
 570  0.527  0.783  0.740- 186 1.09
 571  0.027  0.116  0.990- 187 1.09
 572  0.527  0.116  0.990- 188 1.09
 573  0.027  0.450  0.990- 189 1.09
 574  0.527  0.450  0.990- 190 1.09
 575  0.027  0.783  0.990- 191 1.09
 576  0.527  0.783  0.990- 192 1.09
 577  0.188  0.295  0.010- 211 1.00   1 1.35
 578  0.688  0.295  0.010- 212 1.00   2 1.35
 579  0.188  0.629  0.010- 213 1.00   3 1.35
 580  0.688  0.629  0.010- 214 1.00   4 1.35
 581  0.188  0.962  0.010- 215 1.00   5 1.35
 582  0.688  0.962  0.010- 216 1.00   6 1.35
 583  0.188  0.295  0.260- 193 1.00   7 1.35
 584  0.688  0.295  0.260- 194 1.00   8 1.35
 585  0.188  0.629  0.260- 195 1.00   9 1.35
 586  0.688  0.629  0.260- 196 1.00  10 1.35
 587  0.188  0.962  0.260- 197 1.00  11 1.35
 588  0.688  0.962  0.260- 198 1.00  12 1.35
 589  0.188  0.295  0.510- 199 1.00  13 1.35
 590  0.688  0.295  0.510- 200 1.00  14 1.35
 591  0.188  0.629  0.510- 201 1.00  15 1.35
 592  0.688  0.629  0.510- 202 1.00  16 1.35
 593  0.188  0.962  0.510- 203 1.00  17 1.35
 594  0.688  0.962  0.510- 204 1.00  18 1.35
 595  0.188  0.295  0.760- 205 1.00  19 1.35
 596  0.688  0.295  0.760- 206 1.00  20 1.35
 597  0.188  0.629  0.760- 207 1.00  21 1.35
 598  0.688  0.629  0.760- 208 1.00  22 1.35
 599  0.188  0.962  0.760- 209 1.00  23 1.35
 600  0.688  0.962  0.760- 210 1.00  24 1.35
 601  0.312  0.038  0.135- 217 1.00  25 1.35
 602  0.812  0.038  0.135- 218 1.00  26 1.35
 603  0.312  0.371  0.135- 219 1.00  27 1.35
 604  0.812  0.371  0.135- 220 1.00  28 1.35
 605  0.312  0.705  0.135- 221 1.00  29 1.35
 606  0.812  0.705  0.135- 222 1.00  30 1.35
 607  0.312  0.038  0.385- 223 1.00  31 1.35
 608  0.812  0.038  0.385- 224 1.00  32 1.35
 609  0.312  0.371  0.385- 225 1.00  33 1.35
 610  0.812  0.371  0.385- 226 1.00  34 1.35
 611  0.312  0.705  0.385- 227 1.00  35 1.35
 612  0.812  0.705  0.385- 228 1.00  36 1.35
 613  0.312  0.038  0.635- 229 1.00  37 1.35
 614  0.812  0.038  0.635- 230 1.00  38 1.35
 615  0.312  0.371  0.635- 231 1.00  39 1.35
 616  0.812  0.371  0.635- 232 1.00  40 1.35
 617  0.312  0.705  0.635- 233 1.00  41 1.35
 618  0.812  0.705  0.635- 234 1.00  42 1.35
 619  0.312  0.038  0.885- 235 1.00  43 1.35
 620  0.812  0.038  0.885- 236 1.00  44 1.35
 621  0.312  0.371  0.885- 237 1.00  45 1.35
 622  0.812  0.371  0.885- 238 1.00  46 1.35
 623  0.312  0.705  0.885- 239 1.00  47 1.35
 624  0.812  0.705  0.885- 240 1.00  48 1.35
 625  0.438  0.205  0.010- 259 1.00  49 1.35
 626  0.938  0.205  0.010- 260 1.00  50 1.35
 627  0.438  0.538  0.010- 261 1.00  51 1.35
 628  0.938  0.538  0.010- 262 1.00  52 1.35
 629  0.438  0.871  0.010- 263 1.00  53 1.35
 630  0.938  0.871  0.010- 264 1.00  54 1.35
 631  0.438  0.205  0.260- 241 1.00  55 1.35
 632  0.938  0.205  0.260- 242 1.00  56 1.35
 633  0.438  0.538  0.260- 243 1.00  57 1.35
 634  0.938  0.538  0.260- 244 1.00  58 1.35
 635  0.438  0.871  0.260- 245 1.00  59 1.35
 636  0.938  0.871  0.260- 246 1.00  60 1.35
 637  0.438  0.205  0.510- 247 1.00  61 1.35
 638  0.938  0.205  0.510- 248 1.00  62 1.35
 639  0.438  0.538  0.510- 249 1.00  63 1.35
 640  0.938  0.538  0.510- 250 1.00  64 1.35
 641  0.438  0.871  0.510- 251 1.00  65 1.35
 642  0.938  0.871  0.510- 252 1.00  66 1.35
 643  0.438  0.205  0.760- 253 1.00  67 1.35
 644  0.938  0.205  0.760- 254 1.00  68 1.35
 645  0.438  0.538  0.760- 255 1.00  69 1.35
 646  0.938  0.538  0.760- 256 1.00  70 1.35
 647  0.438  0.871  0.760- 257 1.00  71 1.35
 648  0.938  0.871  0.760- 258 1.00  72 1.35
 649  0.062  0.129  0.135- 265 1.00  73 1.35
 650  0.562  0.129  0.135- 266 1.00  74 1.35
 651  0.062  0.462  0.135- 267 1.00  75 1.35
 652  0.562  0.462  0.135- 268 1.00  76 1.35
 653  0.062  0.795  0.135- 269 1.00  77 1.35
 654  0.562  0.795  0.135- 270 1.00  78 1.35
 655  0.062  0.129  0.385- 271 1.00  79 1.35
 656  0.562  0.129  0.385- 272 1.00  80 1.35
 657  0.062  0.462  0.385- 273 1.00  81 1.35
 658  0.562  0.462  0.385- 274 1.00  82 1.35
 659  0.062  0.795  0.385- 275 1.00  83 1.35
 660  0.562  0.795  0.385- 276 1.00  84 1.35
 661  0.062  0.129  0.635- 277 1.00  85 1.35
 662  0.562  0.129  0.635- 278 1.00  86 1.35
 663  0.062  0.462  0.635- 279 1.00  87 1.35
 664  0.562  0.462  0.635- 280 1.00  88 1.35
 665  0.062  0.795  0.635- 281 1.00  89 1.35
 666  0.562  0.795  0.635- 282 1.00  90 1.35
 667  0.062  0.129  0.885- 283 1.00  91 1.35
 668  0.562  0.129  0.885- 284 1.00  92 1.35
 669  0.062  0.462  0.885- 285 1.00  93 1.35
 670  0.562  0.462  0.885- 286 1.00  94 1.35
 671  0.062  0.795  0.885- 287 1.00  95 1.35
 672  0.562  0.795  0.885- 288 1.00  96 1.35
 673  0.124  0.198  0.050-   1 1.24
 674  0.624  0.198  0.051-   2 1.24
 675  0.124  0.531  0.051-   3 1.24
 676  0.624  0.531  0.051-   4 1.24
 677  0.124  0.865  0.051-   5 1.24
 678  0.624  0.865  0.051-   6 1.24
 679  0.124  0.198  0.301-   7 1.24
 680  0.624  0.198  0.301-   8 1.24
 681  0.124  0.531  0.301-   9 1.24
 682  0.624  0.531  0.301-  10 1.24
 683  0.124  0.865  0.301-  11 1.24
 684  0.624  0.865  0.301-  12 1.24
 685  0.124  0.198  0.551-  13 1.24
 686  0.624  0.198  0.551-  14 1.24
 687  0.124  0.531  0.551-  15 1.24
 688  0.624  0.531  0.551-  16 1.24
 689  0.124  0.865  0.551-  17 1.24
 690  0.624  0.865  0.551-  18 1.24
 691  0.124  0.198  0.801-  19 1.24
 692  0.624  0.198  0.801-  20 1.24
 693  0.124  0.531  0.801-  21 1.24
 694  0.624  0.531  0.801-  22 1.24
 695  0.124  0.865  0.801-  23 1.24
 696  0.624  0.865  0.801-  24 1.24
 697  0.376  0.135  0.176-  25 1.24
 698  0.876  0.135  0.176-  26 1.24
 699  0.376  0.469  0.176-  27 1.24
 700  0.876  0.469  0.176-  28 1.24
 701  0.376  0.802  0.176-  29 1.24
 702  0.876  0.802  0.176-  30 1.24
 703  0.376  0.135  0.426-  31 1.24
 704  0.876  0.135  0.426-  32 1.24
 705  0.376  0.469  0.426-  33 1.24
 706  0.876  0.469  0.426-  34 1.24
 707  0.376  0.802  0.426-  35 1.24
 708  0.876  0.802  0.426-  36 1.24
 709  0.376  0.135  0.676-  37 1.24
 710  0.876  0.135  0.676-  38 1.24
 711  0.376  0.469  0.676-  39 1.24
 712  0.876  0.469  0.676-  40 1.24
 713  0.376  0.802  0.676-  41 1.24
 714  0.876  0.802  0.676-  42 1.24
 715  0.376  0.135  0.926-  43 1.24
 716  0.876  0.135  0.926-  44 1.24
 717  0.376  0.469  0.926-  45 1.24
 718  0.876  0.469  0.926-  46 1.24
 719  0.376  0.802  0.926-  47 1.24
 720  0.876  0.802  0.926-  48 1.24
 721  0.374  0.302  0.051-  49 1.24
 722  0.874  0.302  0.051-  50 1.24
 723  0.374  0.635  0.051-  51 1.24
 724  0.874  0.635  0.051-  52 1.24
 725  0.374  0.969  0.051-  53 1.24
 726  0.874  0.969  0.051-  54 1.24
 727  0.374  0.302  0.301-  55 1.24
 728  0.874  0.302  0.301-  56 1.24
 729  0.374  0.635  0.301-  57 1.24
 730  0.874  0.635  0.301-  58 1.24
 731  0.374  0.969  0.301-  59 1.24
 732  0.874  0.969  0.301-  60 1.24
 733  0.374  0.302  0.551-  61 1.24
 734  0.874  0.302  0.551-  62 1.24
 735  0.374  0.635  0.551-  63 1.24
 736  0.874  0.635  0.551-  64 1.24
 737  0.374  0.969  0.551-  65 1.24
 738  0.874  0.969  0.551-  66 1.24
 739  0.374  0.302  0.801-  67 1.24
 740  0.874  0.302  0.801-  68 1.24
 741  0.374  0.635  0.801-  69 1.24
 742  0.874  0.635  0.801-  70 1.24
 743  0.374  0.969  0.801-  71 1.24
 744  0.874  0.969  0.801-  72 1.24
 745  0.126  0.031  0.176-  73 1.24
 746  0.626  0.031  0.176-  74 1.24
 747  0.126  0.365  0.176-  75 1.24
 748  0.626  0.365  0.176-  76 1.24
 749  0.126  0.698  0.176-  77 1.24
 750  0.626  0.698  0.176-  78 1.24
 751  0.126  0.031  0.426-  79 1.24
 752  0.626  0.031  0.426-  80 1.24
 753  0.126  0.365  0.426-  81 1.24
 754  0.626  0.365  0.426-  82 1.24
 755  0.126  0.698  0.426-  83 1.24
 756  0.626  0.698  0.426-  84 1.24
 757  0.126  0.031  0.676-  85 1.24
 758  0.626  0.031  0.676-  86 1.24
 759  0.126  0.365  0.676-  87 1.24
 760  0.626  0.365  0.676-  88 1.24
 761  0.126  0.698  0.676-  89 1.24
 762  0.626  0.698  0.676-  90 1.24
 763  0.126  0.031  0.926-  91 1.24
 764  0.626  0.031  0.926-  92 1.24
 765  0.126  0.365  0.926-  93 1.24
 766  0.626  0.365  0.926-  94 1.24
 767  0.126  0.698  0.926-  95 1.24
 768  0.626  0.698  0.926-  96 1.24

  LATTYP: Found a simple orthorhombic cell.
 ALAT       =    11.7691778862
 B/A-ratio  =     1.9815765544
 C/A-ratio  =     2.2526894469
  
  Lattice vectors:
  
 A1 = (  -0.0000062467,  11.7691778862,  -0.0000024372)
 A2 = (   0.0000003886,  -0.0000047836,  23.3215269645)
 A3 = (  26.5123028236,  -0.0000139342,   0.0000004158)


Analysis of symmetry for initial positions (statically):
=====================================================================
 Subroutine PRICEL returns:
 Original cell was already a primitive cell.
 

 Routine SETGRP: Setting up the symmetry group for a 
 simple orthorhombic supercell.


 Subroutine GETGRP returns: Found  1 space group operations
 (whereof  1 operations were pure point group operations)
 out of a pool of  8 trial point group operations.


The static configuration has the point symmetry C_1 .


Analysis of symmetry for dynamics (positions and initial velocities):
=====================================================================
 Subroutine PRICEL returns:
 Original cell was already a primitive cell.
 

 Routine SETGRP: Setting up the symmetry group for a 
 simple orthorhombic supercell.


 Subroutine GETGRP returns: Found  1 space group operations
 (whereof  1 operations were pure point group operations)
 out of a pool of  8 trial point group operations.


The dynamic configuration has the point symmetry C_1 .


 Subroutine INISYM returns: Found  1 space group operations
 (whereof  1 operations are pure point group operations),
 and found     1 'primitive' translations


----------------------------------------------------------------------------------------

                                     Primitive cell                                     

  volume of cell :    7276.9696

  direct lattice vectors                    reciprocal lattice vectors
    26.512302824 -0.000013934  0.000000416     0.037718338  0.000000020 -0.000000001
    -0.000006247 11.769177886 -0.000002437     0.000000045  0.084967702  0.000000017
     0.000000389 -0.000004784 23.321526964    -0.000000001  0.000000009  0.042878839

  length of vectors
    26.512302824 11.769177886 23.321526964     0.037718338  0.084967702  0.042878839

  position of ions in fractional coordinates (direct lattice)
     0.168397291  0.231053108  0.052436665
     0.668397291  0.231053108  0.052436665
     0.168397291  0.564386441  0.052436665
     0.668397291  0.564386441  0.052436665
     0.168397291  0.897719775  0.052436665
     0.668397291  0.897719775  0.052436665
     0.168397291  0.231053108  0.302436665
     0.668397291  0.231053108  0.302436665
     0.168397291  0.564386441  0.302436665
     0.668397291  0.564386441  0.302436665
     0.168397291  0.897719775  0.302436665
     0.668397291  0.897719775  0.302436665
     0.168397291  0.231053108  0.552436665
     0.668397291  0.231053108  0.552436665
     0.168397291  0.564386441  0.552436665
     0.668397291  0.564386441  0.552436665
     0.168397291  0.897719775  0.552436665
     0.668397291  0.897719775  0.552436665
     0.168397291  0.231053108  0.802436665
     0.668397291  0.231053108  0.802436665
     0.168397291  0.564386441  0.802436665
     0.668397291  0.564386441  0.802436665
     0.168397291  0.897719775  0.802436665
     0.668397291  0.897719775  0.802436665
     0.331602647  0.102281815  0.177436412
     0.831602647  0.102281815  0.177436412
     0.331602647  0.435615149  0.177436412
     0.831602647  0.435615149  0.177436412
     0.331602647  0.768948482  0.177436412
     0.831602647  0.768948482  0.177436412
     0.331602647  0.102281815  0.427436412
     0.831602647  0.102281815  0.427436412
     0.331602647  0.435615149  0.427436412
     0.831602647  0.435615149  0.427436412
     0.331602647  0.768948482  0.427436412
     0.831602647  0.768948482  0.427436412
     0.331602647  0.102281815  0.677436412
     0.831602647  0.102281815  0.677436412
     0.331602647  0.435615149  0.677436412
     0.831602647  0.435615149  0.677436412
     0.331602647  0.768948482  0.677436412
     0.831602647  0.768948482  0.677436412
     0.331602647  0.102281815  0.927436412
     0.831602647  0.102281815  0.927436412
     0.331602647  0.435615149  0.927436412
     0.831602647  0.435615149  0.927436412
     0.331602647  0.768948482  0.927436412
     0.831602647  0.768948482  0.927436412
     0.418396440  0.268947955  0.052436635
     0.918396440  0.268947955  0.052436635
     0.418396440  0.602281289  0.052436635
     0.918396440  0.602281289  0.052436635
     0.418396440  0.935614622  0.052436635
     0.918396440  0.935614622  0.052436635
     0.418396440  0.268947955  0.302436635
     0.918396440  0.268947955  0.302436635
     0.418396440  0.602281289  0.302436635
     0.918396440  0.602281289  0.302436635
     0.418396440  0.935614622  0.302436635
     0.918396440  0.935614622  0.302436635
     0.418396440  0.268947955  0.552436635
     0.918396440  0.268947955  0.552436635
     0.418396440  0.602281289  0.552436635
     0.918396440  0.602281289  0.552436635
     0.418396440  0.935614622  0.552436635
     0.918396440  0.935614622  0.552436635
     0.418396440  0.268947955  0.802436635
     0.918396440  0.268947955  0.802436635
     0.418396440  0.602281289  0.802436635
     0.918396440  0.602281289  0.802436635
     0.418396440  0.935614622  0.802436635
     0.918396440  0.935614622  0.802436635
     0.081603383  0.064387084  0.177436901
     0.581603383  0.064387084  0.177436901
     0.081603383  0.397720417  0.177436901
     0.581603383  0.397720417  0.177436901
     0.081603383  0.731053751  0.177436901
     0.581603383  0.731053751  0.177436901
     0.081603383  0.064387084  0.427436901
     0.581603383  0.064387084  0.427436901
     0.081603383  0.397720417  0.427436901
     0.581603383  0.397720417  0.427436901
     0.081603383  0.731053751  0.427436901
     0.581603383  0.731053751  0.427436901
     0.081603383  0.064387084  0.677436901
     0.581603383  0.064387084  0.677436901
     0.081603383  0.397720417  0.677436901
     0.581603383  0.397720417  0.677436901
     0.081603383  0.731053751  0.677436901
     0.581603383  0.731053751  0.677436901
     0.081603383  0.064387084  0.927436901
     0.581603383  0.064387084  0.927436901
     0.081603383  0.397720417  0.927436901
     0.581603383  0.397720417  0.927436901
     0.081603383  0.731053751  0.927436901
     0.581603383  0.731053751  0.927436901
     0.205662847  0.204803317  0.099387476
     0.705662847  0.204803317  0.099387476
     0.205662847  0.538136650  0.099387476
     0.705662847  0.538136650  0.099387476
     0.205662847  0.871469984  0.099387476
     0.705662847  0.871469984  0.099387476
     0.205662847  0.204803317  0.349387476
     0.705662847  0.204803317  0.349387476
     0.205662847  0.538136650  0.349387476
     0.705662847  0.538136650  0.349387476
     0.205662847  0.871469984  0.349387476
     0.705662847  0.871469984  0.349387476
     0.205662847  0.204803317  0.599387476
     0.705662847  0.204803317  0.599387476
     0.205662847  0.538136650  0.599387476
     0.705662847  0.538136650  0.599387476
     0.205662847  0.871469984  0.599387476
     0.705662847  0.871469984  0.599387476
     0.205662847  0.204803317  0.849387476
     0.705662847  0.204803317  0.849387476
     0.205662847  0.538136650  0.849387476
     0.705662847  0.538136650  0.849387476
     0.205662847  0.871469984  0.849387476
     0.705662847  0.871469984  0.849387476
     0.294336946  0.128531460  0.224387378
     0.794336946  0.128531460  0.224387378
     0.294336946  0.461864794  0.224387378
     0.794336946  0.461864794  0.224387378
     0.294336946  0.795198127  0.224387378
     0.794336946  0.795198127  0.224387378
     0.294336946  0.128531460  0.474387378
     0.794336946  0.128531460  0.474387378
     0.294336946  0.461864794  0.474387378
     0.794336946  0.461864794  0.474387378
     0.294336946  0.795198127  0.474387378
     0.794336946  0.795198127  0.474387378
     0.294336946  0.128531460  0.724387378
     0.794336946  0.128531460  0.724387378
     0.294336946  0.461864794  0.724387378
     0.794336946  0.461864794  0.724387378
     0.294336946  0.795198127  0.724387378
     0.794336946  0.795198127  0.724387378
     0.294336946  0.128531460  0.974387378
     0.794336946  0.128531460  0.974387378
     0.294336946  0.461864794  0.974387378
     0.794336946  0.461864794  0.974387378
     0.294336946  0.795198127  0.974387378
     0.794336946  0.795198127  0.974387378
     0.455662251  0.295197648  0.099387564
     0.955662251  0.295197648  0.099387564
     0.455662251  0.628530982  0.099387564
     0.955662251  0.628530982  0.099387564
     0.455662251  0.961864315  0.099387564
     0.955662251  0.961864315  0.099387564
     0.455662251  0.295197648  0.349387564
     0.955662251  0.295197648  0.349387564
     0.455662251  0.628530982  0.349387564
     0.955662251  0.628530982  0.349387564
     0.455662251  0.961864315  0.349387564
     0.955662251  0.961864315  0.349387564
     0.455662251  0.295197648  0.599387564
     0.955662251  0.295197648  0.599387564
     0.455662251  0.628530982  0.599387564
     0.955662251  0.628530982  0.599387564
     0.455662251  0.961864315  0.599387564
     0.955662251  0.961864315  0.599387564
     0.455662251  0.295197648  0.849387564
     0.955662251  0.295197648  0.849387564
     0.455662251  0.628530982  0.849387564
     0.955662251  0.628530982  0.849387564
     0.455662251  0.961864315  0.849387564
     0.955662251  0.961864315  0.849387564
     0.044337510  0.038137126  0.224387761
     0.544337510  0.038137126  0.224387761
     0.044337510  0.371470460  0.224387761
     0.544337510  0.371470460  0.224387761
     0.044337510  0.704803793  0.224387761
     0.544337510  0.704803793  0.224387761
     0.044337510  0.038137126  0.474387761
     0.544337510  0.038137126  0.474387761
     0.044337510  0.371470460  0.474387761
     0.544337510  0.371470460  0.474387761
     0.044337510  0.704803793  0.474387761
     0.544337510  0.704803793  0.474387761
     0.044337510  0.038137126  0.724387761
     0.544337510  0.038137126  0.724387761
     0.044337510  0.371470460  0.724387761
     0.544337510  0.371470460  0.724387761
     0.044337510  0.704803793  0.724387761
     0.544337510  0.704803793  0.724387761
     0.044337510  0.038137126  0.974387761
     0.544337510  0.038137126  0.974387761
     0.044337510  0.371470460  0.974387761
     0.544337510  0.371470460  0.974387761
     0.044337510  0.704803793  0.974387761
     0.544337510  0.704803793  0.974387761
     0.161617534  0.313316208  0.230834417
     0.661617534  0.313316208  0.230834417
     0.161617534  0.646649542  0.230834417
     0.661617534  0.646649542  0.230834417
     0.161617534  0.979982875  0.230834417
     0.661617534  0.979982875  0.230834417
     0.161617534  0.313316208  0.480834417
     0.661617534  0.313316208  0.480834417
     0.161617534  0.646649542  0.480834417
     0.661617534  0.646649542  0.480834417
     0.161617534  0.979982875  0.480834417
     0.661617534  0.979982875  0.480834417
     0.161617534  0.313316208  0.730834417
     0.661617534  0.313316208  0.730834417
     0.161617534  0.646649542  0.730834417
     0.661617534  0.646649542  0.730834417
     0.161617534  0.979982875  0.730834417
     0.661617534  0.979982875  0.730834417
     0.161617534  0.313316208  0.980834417
     0.661617534  0.313316208  0.980834417
     0.161617534  0.646649542  0.980834417
     0.661617534  0.646649542  0.980834417
     0.161617534  0.979982875  0.980834417
     0.661617534  0.979982875  0.980834417
     0.338382302  0.020018609  0.105834166
     0.838382302  0.020018609  0.105834166
     0.338382302  0.353351942  0.105834166
     0.838382302  0.353351942  0.105834166
     0.338382302  0.686685276  0.105834166
     0.838382302  0.686685276  0.105834166
     0.338382302  0.020018609  0.355834166
     0.838382302  0.020018609  0.355834166
     0.338382302  0.353351942  0.355834166
     0.838382302  0.353351942  0.355834166
     0.338382302  0.686685276  0.355834166
     0.838382302  0.686685276  0.355834166
     0.338382302  0.020018609  0.605834166
     0.838382302  0.020018609  0.605834166
     0.338382302  0.353351942  0.605834166
     0.838382302  0.353351942  0.605834166
     0.338382302  0.686685276  0.605834166
     0.838382302  0.686685276  0.605834166
     0.338382302  0.020018609  0.855834166
     0.838382302  0.020018609  0.855834166
     0.338382302  0.353351942  0.855834166
     0.838382302  0.353351942  0.855834166
     0.338382302  0.686685276  0.855834166
     0.838382302  0.686685276  0.855834166
     0.411616642  0.186685148  0.230834181
     0.911616642  0.186685148  0.230834181
     0.411616642  0.520018481  0.230834181
     0.911616642  0.520018481  0.230834181
     0.411616642  0.853351814  0.230834181
     0.911616642  0.853351814  0.230834181
     0.411616642  0.186685148  0.480834181
     0.911616642  0.186685148  0.480834181
     0.411616642  0.520018481  0.480834181
     0.911616642  0.520018481  0.480834181
     0.411616642  0.853351814  0.480834181
     0.911616642  0.853351814  0.480834181
     0.411616642  0.186685148  0.730834181
     0.911616642  0.186685148  0.730834181
     0.411616642  0.520018481  0.730834181
     0.911616642  0.520018481  0.730834181
     0.411616642  0.853351814  0.730834181
     0.911616642  0.853351814  0.730834181
     0.411616642  0.186685148  0.980834181
     0.911616642  0.186685148  0.980834181
     0.411616642  0.520018481  0.980834181
     0.911616642  0.520018481  0.980834181
     0.411616642  0.853351814  0.980834181
     0.911616642  0.853351814  0.980834181
     0.088383156  0.146650055  0.105834467
     0.588383156  0.146650055  0.105834467
     0.088383156  0.479983389  0.105834467
     0.588383156  0.479983389  0.105834467
     0.088383156  0.813316722  0.105834467
     0.588383156  0.813316722  0.105834467
     0.088383156  0.146650055  0.355834467
     0.588383156  0.146650055  0.355834467
     0.088383156  0.479983389  0.355834467
     0.588383156  0.479983389  0.355834467
     0.088383156  0.813316722  0.355834467
     0.588383156  0.813316722  0.355834467
     0.088383156  0.146650055  0.605834467
     0.588383156  0.146650055  0.605834467
     0.088383156  0.479983389  0.605834467
     0.588383156  0.479983389  0.605834467
     0.088383156  0.813316722  0.605834467
     0.588383156  0.813316722  0.605834467
     0.088383156  0.146650055  0.855834467
     0.588383156  0.146650055  0.855834467
     0.088383156  0.479983389  0.855834467
     0.588383156  0.479983389  0.855834467
     0.088383156  0.813316722  0.855834467
     0.588383156  0.813316722  0.855834467
     0.187126222  0.159416833  0.134078894
     0.687126222  0.159416833  0.134078894
     0.187126222  0.492750166  0.134078894
     0.687126222  0.492750166  0.134078894
     0.187126222  0.826083499  0.134078894
     0.687126222  0.826083499  0.134078894
     0.187126222  0.159416833  0.384078894
     0.687126222  0.159416833  0.384078894
     0.187126222  0.492750166  0.384078894
     0.687126222  0.492750166  0.384078894
     0.187126222  0.826083499  0.384078894
     0.687126222  0.826083499  0.384078894
     0.187126222  0.159416833  0.634078894
     0.687126222  0.159416833  0.634078894
     0.187126222  0.492750166  0.634078894
     0.687126222  0.492750166  0.634078894
     0.187126222  0.826083499  0.634078894
     0.687126222  0.826083499  0.634078894
     0.187126222  0.159416833  0.884078894
     0.687126222  0.159416833  0.884078894
     0.187126222  0.492750166  0.884078894
     0.687126222  0.492750166  0.884078894
     0.187126222  0.826083499  0.884078894
     0.687126222  0.826083499  0.884078894
     0.312873620  0.173917860  0.009078697
     0.812873620  0.173917860  0.009078697
     0.312873620  0.507251193  0.009078697
     0.812873620  0.507251193  0.009078697
     0.312873620  0.840584527  0.009078697
     0.812873620  0.840584527  0.009078697
     0.312873620  0.173917860  0.259078697
     0.812873620  0.173917860  0.259078697
     0.312873620  0.507251193  0.259078697
     0.812873620  0.507251193  0.259078697
     0.312873620  0.840584527  0.259078697
     0.812873620  0.840584527  0.259078697
     0.312873620  0.173917860  0.509078697
     0.812873620  0.173917860  0.509078697
     0.312873620  0.507251193  0.509078697
     0.812873620  0.507251193  0.509078697
     0.312873620  0.840584527  0.509078697
     0.812873620  0.840584527  0.509078697
     0.312873620  0.173917860  0.759078697
     0.812873620  0.173917860  0.759078697
     0.312873620  0.507251193  0.759078697
     0.812873620  0.507251193  0.759078697
     0.312873620  0.840584527  0.759078697
     0.812873620  0.840584527  0.759078697
     0.437125685  0.007250850  0.134078856
     0.937125685  0.007250850  0.134078856
     0.437125685  0.340584183  0.134078856
     0.937125685  0.340584183  0.134078856
     0.437125685  0.673917516  0.134078856
     0.937125685  0.673917516  0.134078856
     0.437125685  0.007250850  0.384078856
     0.937125685  0.007250850  0.384078856
     0.437125685  0.340584183  0.384078856
     0.937125685  0.340584183  0.384078856
     0.437125685  0.673917516  0.384078856
     0.937125685  0.673917516  0.384078856
     0.437125685  0.007250850  0.634078856
     0.937125685  0.007250850  0.634078856
     0.437125685  0.340584183  0.634078856
     0.937125685  0.340584183  0.634078856
     0.437125685  0.673917516  0.634078856
     0.937125685  0.673917516  0.634078856
     0.437125685  0.007250850  0.884078856
     0.937125685  0.007250850  0.884078856
     0.437125685  0.340584183  0.884078856
     0.937125685  0.340584183  0.884078856
     0.437125685  0.673917516  0.884078856
     0.937125685  0.673917516  0.884078856
     0.062874093  0.326083933  0.009079037
     0.562874093  0.326083933  0.009079037
     0.062874093  0.659417267  0.009079037
     0.562874093  0.659417267  0.009079037
     0.062874093  0.992750600  0.009079037
     0.562874093  0.992750600  0.009079037
     0.062874093  0.326083933  0.259079037
     0.562874093  0.326083933  0.259079037
     0.062874093  0.659417267  0.259079037
     0.562874093  0.659417267  0.259079037
     0.062874093  0.992750600  0.259079037
     0.562874093  0.992750600  0.259079037
     0.062874093  0.326083933  0.509079037
     0.562874093  0.326083933  0.509079037
     0.062874093  0.659417267  0.509079037
     0.562874093  0.659417267  0.509079037
     0.062874093  0.992750600  0.509079037
     0.562874093  0.992750600  0.509079037
     0.062874093  0.326083933  0.759079037
     0.562874093  0.326083933  0.759079037
     0.062874093  0.659417267  0.759079037
     0.562874093  0.659417267  0.759079037
     0.062874093  0.992750600  0.759079037
     0.562874093  0.992750600  0.759079037
     0.236077203  0.152514648  0.081905928
     0.736077203  0.152514648  0.081905928
     0.236077203  0.485847981  0.081905928
     0.736077203  0.485847981  0.081905928
     0.236077203  0.819181314  0.081905928
     0.736077203  0.819181314  0.081905928
     0.236077203  0.152514648  0.331905928
     0.736077203  0.152514648  0.331905928
     0.236077203  0.485847981  0.331905928
     0.736077203  0.485847981  0.331905928
     0.236077203  0.819181314  0.331905928
     0.736077203  0.819181314  0.331905928
     0.236077203  0.152514648  0.581905928
     0.736077203  0.152514648  0.581905928
     0.236077203  0.485847981  0.581905928
     0.736077203  0.485847981  0.581905928
     0.236077203  0.819181314  0.581905928
     0.736077203  0.819181314  0.581905928
     0.236077203  0.152514648  0.831905928
     0.736077203  0.152514648  0.831905928
     0.236077203  0.485847981  0.831905928
     0.736077203  0.485847981  0.831905928
     0.236077203  0.819181314  0.831905928
     0.736077203  0.819181314  0.831905928
     0.263922597  0.180820060  0.206905862
     0.763922597  0.180820060  0.206905862
     0.263922597  0.514153393  0.206905862
     0.763922597  0.514153393  0.206905862
     0.263922597  0.847486727  0.206905862
     0.763922597  0.847486727  0.206905862
     0.263922597  0.180820060  0.456905862
     0.763922597  0.180820060  0.456905862
     0.263922597  0.514153393  0.456905862
     0.763922597  0.514153393  0.456905862
     0.263922597  0.847486727  0.456905862
     0.763922597  0.847486727  0.456905862
     0.263922597  0.180820060  0.706905862
     0.763922597  0.180820060  0.706905862
     0.263922597  0.514153393  0.706905862
     0.763922597  0.514153393  0.706905862
     0.263922597  0.847486727  0.706905862
     0.763922597  0.847486727  0.706905862
     0.263922597  0.180820060  0.956905862
     0.763922597  0.180820060  0.956905862
     0.263922597  0.514153393  0.956905862
     0.763922597  0.514153393  0.956905862
     0.263922597  0.847486727  0.956905862
     0.763922597  0.847486727  0.956905862
     0.486076750  0.014152788  0.081906023
     0.986076750  0.014152788  0.081906023
     0.486076750  0.347486122  0.081906023
     0.986076750  0.347486122  0.081906023
     0.486076750  0.680819455  0.081906023
     0.986076750  0.680819455  0.081906023
     0.486076750  0.014152788  0.331906023
     0.986076750  0.014152788  0.331906023
     0.486076750  0.347486122  0.331906023
     0.986076750  0.347486122  0.331906023
     0.486076750  0.680819455  0.331906023
     0.986076750  0.680819455  0.331906023
     0.486076750  0.014152788  0.581906023
     0.986076750  0.014152788  0.581906023
     0.486076750  0.347486122  0.581906023
     0.986076750  0.347486122  0.581906023
     0.486076750  0.680819455  0.581906023
     0.986076750  0.680819455  0.581906023
     0.486076750  0.014152788  0.831906023
     0.986076750  0.014152788  0.831906023
     0.486076750  0.347486122  0.831906023
     0.986076750  0.347486122  0.831906023
     0.486076750  0.680819455  0.831906023
     0.986076750  0.680819455  0.831906023
     0.013923114  0.319181954  0.206906146
     0.513923114  0.319181954  0.206906146
     0.013923114  0.652515287  0.206906146
     0.513923114  0.652515287  0.206906146
     0.013923114  0.985848621  0.206906146
     0.513923114  0.985848621  0.206906146
     0.013923114  0.319181954  0.456906146
     0.513923114  0.319181954  0.456906146
     0.013923114  0.652515287  0.456906146
     0.513923114  0.652515287  0.456906146
     0.013923114  0.985848621  0.456906146
     0.513923114  0.985848621  0.456906146
     0.013923114  0.319181954  0.706906146
     0.513923114  0.319181954  0.706906146
     0.013923114  0.652515287  0.706906146
     0.513923114  0.652515287  0.706906146
     0.013923114  0.985848621  0.706906146
     0.513923114  0.985848621  0.706906146
     0.013923114  0.319181954  0.956906146
     0.513923114  0.319181954  0.956906146
     0.013923114  0.652515287  0.956906146
     0.513923114  0.652515287  0.956906146
     0.013923114  0.985848621  0.956906146
     0.513923114  0.985848621  0.956906146
     0.222761438  0.283125996  0.115148624
     0.722761438  0.283125996  0.115148624
     0.222761438  0.616459329  0.115148624
     0.722761438  0.616459329  0.115148624
     0.222761438  0.949792662  0.115148624
     0.722761438  0.949792662  0.115148624
     0.222761438  0.283125996  0.365148624
     0.722761438  0.283125996  0.365148624
     0.222761438  0.616459329  0.365148624
     0.722761438  0.616459329  0.365148624
     0.222761438  0.949792662  0.365148624
     0.722761438  0.949792662  0.365148624
     0.222761438  0.283125996  0.615148624
     0.722761438  0.283125996  0.615148624
     0.222761438  0.616459329  0.615148624
     0.722761438  0.616459329  0.615148624
     0.222761438  0.949792662  0.615148624
     0.722761438  0.949792662  0.615148624
     0.222761438  0.283125996  0.865148624
     0.722761438  0.283125996  0.865148624
     0.222761438  0.616459329  0.865148624
     0.722761438  0.616459329  0.865148624
     0.222761438  0.949792662  0.865148624
     0.722761438  0.949792662  0.865148624
     0.277238433  0.050208696  0.240148470
     0.777238433  0.050208696  0.240148470
     0.277238433  0.383542030  0.240148470
     0.777238433  0.383542030  0.240148470
     0.277238433  0.716875363  0.240148470
     0.777238433  0.716875363  0.240148470
     0.277238433  0.050208696  0.490148470
     0.777238433  0.050208696  0.490148470
     0.277238433  0.383542030  0.490148470
     0.777238433  0.383542030  0.490148470
     0.277238433  0.716875363  0.490148470
     0.777238433  0.716875363  0.490148470
     0.277238433  0.050208696  0.740148470
     0.777238433  0.050208696  0.740148470
     0.277238433  0.383542030  0.740148470
     0.777238433  0.383542030  0.740148470
     0.277238433  0.716875363  0.740148470
     0.777238433  0.716875363  0.740148470
     0.277238433  0.050208696  0.990148470
     0.777238433  0.050208696  0.990148470
     0.277238433  0.383542030  0.990148470
     0.777238433  0.383542030  0.990148470
     0.277238433  0.716875363  0.990148470
     0.777238433  0.716875363  0.990148470
     0.472760678  0.216874914  0.115148711
     0.972760678  0.216874914  0.115148711
     0.472760678  0.550208247  0.115148711
     0.972760678  0.550208247  0.115148711
     0.472760678  0.883541580  0.115148711
     0.972760678  0.883541580  0.115148711
     0.472760678  0.216874914  0.365148711
     0.972760678  0.216874914  0.365148711
     0.472760678  0.550208247  0.365148711
     0.972760678  0.550208247  0.365148711
     0.472760678  0.883541580  0.365148711
     0.972760678  0.883541580  0.365148711
     0.472760678  0.216874914  0.615148711
     0.972760678  0.216874914  0.615148711
     0.472760678  0.550208247  0.615148711
     0.972760678  0.550208247  0.615148711
     0.472760678  0.883541580  0.615148711
     0.972760678  0.883541580  0.615148711
     0.472760678  0.216874914  0.865148711
     0.972760678  0.216874914  0.865148711
     0.472760678  0.550208247  0.865148711
     0.972760678  0.550208247  0.865148711
     0.472760678  0.883541580  0.865148711
     0.972760678  0.883541580  0.865148711
     0.027239031  0.116459730  0.240148933
     0.527239031  0.116459730  0.240148933
     0.027239031  0.449793063  0.240148933
     0.527239031  0.449793063  0.240148933
     0.027239031  0.783126396  0.240148933
     0.527239031  0.783126396  0.240148933
     0.027239031  0.116459730  0.490148933
     0.527239031  0.116459730  0.490148933
     0.027239031  0.449793063  0.490148933
     0.527239031  0.449793063  0.490148933
     0.027239031  0.783126396  0.490148933
     0.527239031  0.783126396  0.490148933
     0.027239031  0.116459730  0.740148933
     0.527239031  0.116459730  0.740148933
     0.027239031  0.449793063  0.740148933
     0.527239031  0.449793063  0.740148933
     0.027239031  0.783126396  0.740148933
     0.527239031  0.783126396  0.740148933
     0.027239031  0.116459730  0.990148933
     0.527239031  0.116459730  0.990148933
     0.027239031  0.449793063  0.990148933
     0.527239031  0.449793063  0.990148933
     0.027239031  0.783126396  0.990148933
     0.527239031  0.783126396  0.990148933
     0.188135129  0.295323497  0.010237714
     0.688135129  0.295323497  0.010237714
     0.188135129  0.628656830  0.010237714
     0.688135129  0.628656830  0.010237714
     0.188135129  0.961990164  0.010237714
     0.688135129  0.961990164  0.010237714
     0.188135129  0.295323497  0.260237714
     0.688135129  0.295323497  0.260237714
     0.188135129  0.628656830  0.260237714
     0.688135129  0.628656830  0.260237714
     0.188135129  0.961990164  0.260237714
     0.688135129  0.961990164  0.260237714
     0.188135129  0.295323497  0.510237714
     0.688135129  0.295323497  0.510237714
     0.188135129  0.628656830  0.510237714
     0.688135129  0.628656830  0.510237714
     0.188135129  0.961990164  0.510237714
     0.688135129  0.961990164  0.510237714
     0.188135129  0.295323497  0.760237714
     0.688135129  0.295323497  0.760237714
     0.188135129  0.628656830  0.760237714
     0.688135129  0.628656830  0.760237714
     0.188135129  0.961990164  0.760237714
     0.688135129  0.961990164  0.760237714
     0.311864686  0.038011072  0.135237434
     0.811864686  0.038011072  0.135237434
     0.311864686  0.371344405  0.135237434
     0.811864686  0.371344405  0.135237434
     0.311864686  0.704677739  0.135237434
     0.811864686  0.704677739  0.135237434
     0.311864686  0.038011072  0.385237434
     0.811864686  0.038011072  0.385237434
     0.311864686  0.371344405  0.385237434
     0.811864686  0.371344405  0.385237434
     0.311864686  0.704677739  0.385237434
     0.811864686  0.704677739  0.385237434
     0.311864686  0.038011072  0.635237434
     0.811864686  0.038011072  0.635237434
     0.311864686  0.371344405  0.635237434
     0.811864686  0.371344405  0.635237434
     0.311864686  0.704677739  0.635237434
     0.811864686  0.704677739  0.635237434
     0.311864686  0.038011072  0.885237434
     0.811864686  0.038011072  0.885237434
     0.311864686  0.371344405  0.885237434
     0.811864686  0.371344405  0.885237434
     0.311864686  0.704677739  0.885237434
     0.811864686  0.704677739  0.885237434
     0.438134164  0.204677298  0.010237575
     0.938134164  0.204677298  0.010237575
     0.438134164  0.538010631  0.010237575
     0.938134164  0.538010631  0.010237575
     0.438134164  0.871343964  0.010237575
     0.938134164  0.871343964  0.010237575
     0.438134164  0.204677298  0.260237575
     0.938134164  0.204677298  0.260237575
     0.438134164  0.538010631  0.260237575
     0.938134164  0.538010631  0.260237575
     0.438134164  0.871343964  0.260237575
     0.938134164  0.871343964  0.260237575
     0.438134164  0.204677298  0.510237575
     0.938134164  0.204677298  0.510237575
     0.438134164  0.538010631  0.510237575
     0.938134164  0.538010631  0.510237575
     0.438134164  0.871343964  0.510237575
     0.938134164  0.871343964  0.510237575
     0.438134164  0.204677298  0.760237575
     0.938134164  0.204677298  0.760237575
     0.438134164  0.538010631  0.760237575
     0.938134164  0.538010631  0.760237575
     0.438134164  0.871343964  0.760237575
     0.938134164  0.871343964  0.760237575
     0.061865585  0.128657749  0.135237971
     0.561865585  0.128657749  0.135237971
     0.061865585  0.461991082  0.135237971
     0.561865585  0.461991082  0.135237971
     0.061865585  0.795324415  0.135237971
[...]
      0.72216      9.21675      5.60064         0.000329     -0.001264     -0.000382
     13.97832      9.21675      5.60064         0.000384     -0.001218     -0.000410
      0.72217      1.37063     11.43102         0.000375     -0.001221     -0.000407
     13.97832      1.37063     11.43102         0.000379     -0.001221     -0.000407
      0.72217      5.29369     11.43102         0.000375     -0.001225     -0.000407
     13.97832      5.29368     11.43102         0.000378     -0.001221     -0.000408
      0.72216      9.21675     11.43102         0.000374     -0.001223     -0.000406
     13.97832      9.21674     11.43102         0.000378     -0.001221     -0.000408
      0.72217      1.37063     17.26140         0.000400     -0.001222     -0.000395
     13.97832      1.37062     17.26140         0.000371     -0.001221     -0.000411
      0.72217      5.29369     17.26140         0.000394     -0.001222     -0.000400
     13.97832      5.29368     17.26140         0.000371     -0.001222     -0.000410
      0.72216      9.21675     17.26140         0.000388     -0.001214     -0.000409
     13.97832      9.21674     17.26140         0.000372     -0.001221     -0.000411
      0.72217      1.37063     23.09178         0.000599     -0.001272     -0.000508
     13.97832      1.37062     23.09178         0.000377     -0.001217     -0.000416
      0.72217      5.29369     23.09178         0.000269     -0.001073     -0.000666
     13.97832      5.29368     23.09178         0.000373     -0.001218     -0.000415
      0.72216      9.21675     23.09178         0.000420     -0.001166     -0.000445
     13.97832      9.21674     23.09178         0.000377     -0.001219     -0.000415
      4.98789      3.47571      0.23876         0.039921      0.022054      0.005555
     18.24405      3.47571      0.23876         0.000468     -0.000190      0.000388
      4.98789      7.39877      0.23876         0.000452     -0.000203      0.000732
     18.24404      7.39876      0.23876         0.000469     -0.000185      0.000382
      4.98789     11.32183      0.23876         0.000802     -0.001365      0.001383
     18.24404     11.32182      0.23876         0.000470     -0.000187      0.000383
      4.98789      3.47571      6.06914         0.000409     -0.000137     -0.000043
     18.24405      3.47570      6.06914         0.000485     -0.000162      0.000324
      4.98789      7.39877      6.06914         0.000433     -0.000152      0.000335
     18.24404      7.39876      6.06914         0.000484     -0.000160      0.000325
      4.98789     11.32183      6.06914         0.000154      0.000266     -0.000359
     18.24404     11.32182      6.06914         0.000485     -0.000156      0.000321
      4.98789      3.47571     11.89952         0.000466     -0.000072      0.000107
     18.24405      3.47570     11.89952         0.000477     -0.000136      0.000264
      4.98789      7.39877     11.89952         0.000464     -0.000065      0.000115
     18.24404      7.39876     11.89952         0.000476     -0.000136      0.000265
      4.98789     11.32183     11.89952         0.000458     -0.000061      0.000095
     18.24404     11.32182     11.89952         0.000477     -0.000135      0.000264
      4.98789      3.47571     17.72990         0.000507      0.000073     -0.000125
     18.24405      3.47570     17.72990         0.000463     -0.000158      0.000310
      4.98789      7.39877     17.72990         0.000536      0.000039     -0.000030
     18.24404      7.39876     17.72990         0.000464     -0.000157      0.000309
      4.98789     11.32183     17.72990         0.000497     -0.000116      0.000121
     18.24404     11.32182     17.72990         0.000464     -0.000159      0.000311
      8.26825      0.44735      3.15394        -0.000883      0.000384      0.000169
     21.52440      0.44735      3.15394        -0.000386      0.000273      0.000466
      8.26825      4.37041      3.15394        -0.000704     -0.000115      0.000275
     21.52440      4.37041      3.15394        -0.000415      0.000240      0.000440
      8.26825      8.29347      3.15394        -0.000462      0.000276      0.000540
     21.52440      8.29347      3.15394        -0.000413      0.000269      0.000465
      8.26825      0.44735      8.98433        -0.000505      0.000134      0.000173
     21.52440      0.44735      8.98433        -0.000395      0.000160      0.000253
      8.26825      4.37041      8.98432        -0.000485      0.000115      0.000183
     21.52440      4.37041      8.98432        -0.000396      0.000151      0.000245
      8.26825      8.29347      8.98432        -0.000486      0.000148      0.000217
     21.52440      8.29346      8.98432        -0.000406      0.000170      0.000273
      8.26825      0.44735     14.81471        -0.000408      0.000138      0.000185
     21.52440      0.44734     14.81471        -0.000461      0.000140      0.000231
      8.26825      4.37041     14.81471        -0.000405      0.000145      0.000191
     21.52440      4.37040     14.81471        -0.000458      0.000145      0.000236
      8.26825      8.29347     14.81471        -0.000412      0.000155      0.000207
     21.52440      8.29346     14.81471        -0.000458      0.000147      0.000239
      8.26825      0.44735     20.64509        -0.000335      0.000233      0.000402
     21.52440      0.44734     20.64509        -0.000497      0.000202      0.000367
      8.26825      4.37041     20.64509        -0.000238      0.000199      0.000262
     21.52440      4.37040     20.64509        -0.000502      0.000205      0.000371
      8.26825      8.29347     20.64509        -0.000340      0.000306      0.000426
     21.52440      8.29346     20.64509        -0.000486      0.000216      0.000377
     11.61594      2.40888      0.23876         0.000550      0.000286      0.000572
     24.87210      2.40887      0.23876         0.000422      0.000352      0.000852
     11.61594      6.33194      0.23875         0.000600      0.000274      0.000563
     24.87209      6.33193      0.23875         0.000431      0.000348      0.000704
     11.61594     10.25500      0.23875         0.000523      0.000319      0.000583
     24.87209     10.25499      0.23875         0.000467      0.000334      0.000799
     11.61594      2.40888      6.06914         0.000452      0.000169      0.000333
     24.87210      2.40887      6.06914         0.000734      0.000065      0.000213
     11.61594      6.33194      6.06914         0.000482      0.000176      0.000367
     24.87209      6.33193      6.06914         0.000629      0.000138      0.000348
     11.61594     10.25499      6.06914         0.000490      0.000227      0.000421
     24.87209     10.25499      6.06914         0.000711      0.000218      0.000304
     11.61594      2.40887     11.89952         0.000530      0.000145      0.000286
     24.87210      2.40887     11.89952         0.000547      0.000134      0.000242
     11.61594      6.33193     11.89952         0.000531      0.000150      0.000295
     24.87209      6.33193     11.89952         0.000545      0.000142      0.000258
     11.61594     10.25499     11.89952         0.000532      0.000152      0.000296
     24.87209     10.25499     11.89952         0.000551      0.000143      0.000250
     11.61594      2.40887     17.72990         0.000601      0.000137      0.000310
     24.87210      2.40887     17.72990         0.000442      0.000161      0.000262
     11.61594      6.33193     17.72990         0.000582      0.000168      0.000336
     24.87209      6.33193     17.72990         0.000462      0.000197      0.000314
     11.61594     10.25499     17.72990         0.000582      0.000165      0.000338
     24.87209     10.25499     17.72990         0.000461      0.000170      0.000285
      1.64020      1.51419      3.15396         0.007005      0.006179     -0.007948
     14.89635      1.51419      3.15396        -0.000441     -0.000208      0.000331
      1.64020      5.43725      3.15395        -0.000265     -0.000825      0.001213
     14.89635      5.43725      3.15396        -0.000436     -0.000213      0.000337
      1.64019      9.36031      3.15395        -0.000512     -0.000061      0.000610
     14.89635      9.36031      3.15395        -0.000436     -0.000203      0.000330
      1.64020      1.51419      8.98434        -0.000403     -0.000066     -0.000058
     14.89635      1.51419      8.98434        -0.000440     -0.000170      0.000243
      1.64020      5.43725      8.98434        -0.000417     -0.000130      0.000106
     14.89635      5.43725      8.98434        -0.000440     -0.000173      0.000246
      1.64019      9.36031      8.98434        -0.000383     -0.000044      0.000023
     14.89635      9.36030      8.98434        -0.000438     -0.000171      0.000246
      1.64020      1.51419     14.81472        -0.000433     -0.000094      0.000056
     14.89635      1.51419     14.81472        -0.000423     -0.000172      0.000239
      1.64020      5.43725     14.81472        -0.000445     -0.000062      0.000030
     14.89635      5.43724     14.81472        -0.000422     -0.000171      0.000237
      1.64019      9.36031     14.81472        -0.000441     -0.000091      0.000067
     14.89635      9.36030     14.81472        -0.000423     -0.000171      0.000238
      1.64020      1.51419     20.64510        -0.000631     -0.000043     -0.000171
     14.89635      1.51418     20.64510        -0.000416     -0.000212      0.000328
      1.64020      5.43725     20.64510        -0.001149      0.000592     -0.000781
     14.89635      5.43724     20.64510        -0.000413     -0.000208      0.000325
      1.64019      9.36031     20.64510        -0.000475     -0.000326      0.000272
     14.89635      9.36030     20.64510        -0.000416     -0.000205      0.000321
      3.29325      2.32937      1.17724         0.007674     -0.025464      0.080950
     16.54940      2.32937      1.18524        -0.000341     -0.000087      0.000251
      3.29325      6.25243      1.18523        -0.000489      0.000061      0.000809
     16.54940      6.25243      1.18524        -0.000339     -0.000085      0.000248
      3.29325     10.17549      1.18523        -0.000618     -0.000390      0.000808
     16.54940     10.17548      1.18523        -0.000337     -0.000083      0.000248
      3.29325      2.32937      7.01562        -0.000370     -0.000109     -0.000107
     16.54940      2.32936      7.01562        -0.000313     -0.000065      0.000208
      3.29325      6.25243      7.01562        -0.000391     -0.000137      0.000096
     16.54940      6.25242      7.01562        -0.000314     -0.000066      0.000208
      3.29325     10.17549      7.01562        -0.000257      0.000179     -0.000048
     16.54940     10.17548      7.01562        -0.000310     -0.000062      0.000207
      3.29325      2.32937     12.84600        -0.000266     -0.000024      0.000071
     16.54940      2.32936     12.84600        -0.000310     -0.000055      0.000175
      3.29325      6.25243     12.84600        -0.000260     -0.000017      0.000075
     16.54940      6.25242     12.84600        -0.000310     -0.000055      0.000176
      3.29325     10.17549     12.84600        -0.000260     -0.000013      0.000075
     16.54940     10.17548     12.84600        -0.000309     -0.000054      0.000176
      3.29325      2.32937     18.67638        -0.000115      0.000044     -0.000107
     16.54940      2.32936     18.67638        -0.000335     -0.000073      0.000208
      3.29325      6.25243     18.67638        -0.000066      0.000126     -0.000050
     16.54940      6.25242     18.67638        -0.000332     -0.000071      0.000207
      3.29325     10.17549     18.67638        -0.000222     -0.000058      0.000096
     16.54940     10.17548     18.67638        -0.000334     -0.000072      0.000208
      9.96289      1.59370      4.10042         0.000365      0.000071      0.000125
     23.21904      1.59369      4.10042         0.001031      0.000283      0.000171
      9.96289      5.51676      4.10042         0.000512      0.000110      0.000061
     23.21904      5.51675      4.10042         0.000948      0.000251      0.000158
      9.96288      9.43982      4.10042         0.000791      0.000294      0.000169
     23.21904      9.43981      4.10042         0.000971      0.000305      0.000172
      9.96289      1.59370      9.93080         0.000721      0.000181      0.000024
     23.21904      1.59369      9.93080         0.000866      0.000221      0.000026
      9.96289      5.51675      9.93080         0.000735      0.000183      0.000028
     23.21904      5.51675      9.93080         0.000850      0.000215      0.000033
      9.96288      9.43981      9.93080         0.000748      0.000197      0.000038
     23.21904      9.43981      9.93080         0.000862      0.000236      0.000034
      9.96289      1.59369     15.76118         0.000884      0.000217      0.000025
     23.21904      1.59369     15.76118         0.000729      0.000194      0.000025
      9.96289      5.51675     15.76118         0.000891      0.000223      0.000028
     23.21904      5.51675     15.76118         0.000740      0.000202      0.000033
      9.96288      9.43981     15.76118         0.000877      0.000222      0.000038
     23.21904      9.43981     15.76118         0.000743      0.000201      0.000034
      9.96289      1.59369     21.59156         0.001066      0.000316      0.000128
     23.21904      1.59369     21.59156         0.000724      0.000226      0.000170
      9.96289      5.51675     21.59156         0.001337      0.000301      0.000063
     23.21904      5.51675     21.59156         0.000717      0.000238      0.000157
      9.96288      9.43981     21.59156         0.001030      0.000311      0.000169
     23.21904      9.43980     21.59156         0.000762      0.000241      0.000171
      9.92131      3.55522      1.18523        -0.000628      0.000173      0.000431
     23.17746      3.55521      1.18523        -0.000538      0.000281      0.000431
      9.92131      7.47828      1.18523        -0.000500      0.000231      0.000368
     23.17746      7.47827      1.18523        -0.000639      0.000265      0.000369
      9.92130     11.40134      1.18523        -0.000685      0.000259      0.000420
     23.17745     11.40133      1.18523        -0.000518      0.000240      0.000419
      9.92131      3.55522      7.01562        -0.000626      0.000146      0.000170
     23.17746      3.55521      7.01562        -0.000257      0.000050      0.000160
      9.92131      7.47828      7.01562        -0.000589      0.000164      0.000199
     23.17746      7.47827      7.01562        -0.000387      0.000126      0.000199
      9.92130     11.40134      7.01561        -0.000642      0.000215      0.000186
     23.17746     11.40133      7.01561        -0.000304      0.000096      0.000201
      9.92131      3.55522     12.84600        -0.000479      0.000134      0.000150
     23.17746      3.55521     12.84600        -0.000493      0.000129      0.000150
      9.92131      7.47828     12.84600        -0.000484      0.000139      0.000156
     23.17746      7.47827     12.84600        -0.000498      0.000134      0.000156
      9.92130     11.40134     12.84600        -0.000484      0.000138      0.000153
     23.17746     11.40133     12.84600        -0.000491      0.000131      0.000153
      9.92131      3.55522     18.67638        -0.000333      0.000105      0.000161
     23.17746      3.55521     18.67638        -0.000737      0.000187      0.000171
      9.92131      7.47828     18.67638        -0.000403      0.000147      0.000199
     23.17746      7.47827     18.67638        -0.000688      0.000184      0.000199
      9.92130     11.40133     18.67638        -0.000400      0.000126      0.000201
     23.17746     11.40133     18.67638        -0.000689      0.000181      0.000185
      3.33484      0.36785      4.10043        -0.001572      0.001730     -0.000986
     16.59099      0.36785      4.10043         0.000380     -0.000120      0.000164
      3.33484      4.29091      4.10043         0.001202     -0.001291     -0.000421
     16.59099      4.29091      4.10043         0.000386     -0.000125      0.000166
      3.33484      8.21397      4.10043         0.000336     -0.000101      0.000247
     16.59099      8.21396      4.10043         0.000386     -0.000122      0.000162
      3.33484      0.36785      9.93081         0.000308     -0.000040     -0.000041
     16.59099      0.36784      9.93081         0.000370     -0.000101      0.000112
      3.33484      4.29091      9.93081         0.000363     -0.000103     -0.000006
     16.59099      4.29090      9.93081         0.000371     -0.000103      0.000113
      3.33484      8.21397      9.93081         0.000324     -0.000046     -0.000005
     16.59099      8.21396      9.93081         0.000372     -0.000103      0.000113
      3.33484      0.36785     15.76120         0.000310     -0.000069     -0.000006
     16.59099      0.36784     15.76120         0.000391     -0.000109      0.000113
      3.33484      4.29091     15.76119         0.000262     -0.000033     -0.000041
     16.59099      4.29090     15.76119         0.000392     -0.000109      0.000112
      3.33484      8.21397     15.76119         0.000285     -0.000045     -0.000005
     16.59099      8.21396     15.76119         0.000390     -0.000108      0.000113
      3.33484      0.36785     21.59158        -0.000382     -0.000794     -0.000430
     16.59099      0.36784     21.59158         0.000409     -0.000131      0.000166
      3.33484      4.29091     21.59158        -0.001066      0.001572     -0.000990
     16.59099      4.29090     21.59158         0.000415     -0.000132      0.000164
      3.33484      8.21397     21.59158         0.000363     -0.000059      0.000249
     16.59099      8.21396     21.59158         0.000411     -0.000130      0.000163
 -----------------------------------------------------------------------------------
    total drift:                                0.002435     -0.000004     -0.001687


--------------------------------------------------------------------------------------------------------



  FREE ENERGIE OF THE ION-ELECTRON SYSTEM (eV)
  ---------------------------------------------------
  free  energy   TOTEN  =     -3998.46305634 eV

  energy  without entropy=    -3998.46305634  energy(sigma->0) =    -3998.46305634



--------------------------------------------------------------------------------------------------------


    POTLOK:  cpu time      8.3530: real time      8.3560


--------------------------------------------------------------------------------------------------------


 writing wavefunctions
     LOOP+:  cpu time   1370.3494: real time   1374.3261
    4ORBIT:  cpu time      0.0000: real time      0.0000

 total amount of memory used by VASP MPI-rank0  1045882. kBytes
=======================================================================

   base      :      30000. kBytes
   nonl-proj :     816291. kBytes
   fftplans  :      53569. kBytes
   grid      :     104517. kBytes
   one-center:        294. kBytes
   wavefun   :      41211. kBytes

  
  
 General timing and accounting informations for this job:
 ========================================================
  
                  Total CPU time used (sec):     1611.510
                            User time (sec):     1567.748
                          System time (sec):       43.762
                         Elapsed time (sec):     1624.330
  
                   Maximum memory used (kb):     1479372.
                   Average memory used (kb):          N/A
  
                          Minor page faults:      1327319
                          Major page faults:         1160
                 Voluntary context switches:        10677
