       N       E                     dE             d eps       ncg     rms          ort
DAV:   1     0.269291914507E+03    0.26929E+03   -0.16261E+04   512   0.801E+01
DAV:   2    -0.626904519705E+02   -0.33198E+03   -0.33198E+03   512   0.693E+00
DAV:   3    -0.639218603010E+02   -0.12314E+01   -0.12314E+01   512   0.124E+00
DAV:   4    -0.639266900684E+02   -0.48298E-02   -0.48298E-02   512   0.849E-02
DAV:   5    -0.639266901707E+02   -0.10231E-06   -0.12736E-06   512   0.460E-04
SDA:   6    -0.519511799654E+02    0.11976E+02   -0.12736E-06   512   0.203E+02 0.000E+00
CGA:   7    -0.560599900438E+02   -0.41088E+01   -0.41101E+01   512   0.242E+01 0.807E-01
CGA:   8    -0.569224728467E+02   -0.86248E+00   -0.85920E+00   512   0.139E+01-0.172E-01
CGA:   9    -0.573174692541E+02   -0.39500E+00   -0.40037E+00   512   0.459E+00-0.503E-01
CGA:  10    -0.574319059877E+02   -0.11444E+00   -0.11474E+00   512   0.109E+00-0.377E-02
CGA:  11    -0.574615695166E+02   -0.29664E-01   -0.29653E-01   512   0.283E-01 0.187E-03
CGA:  12    -0.574705494066E+02   -0.89799E-02   -0.89739E-02   512   0.940E-02 0.338E-04
CGA:  13    -0.574737450144E+02   -0.31956E-02   -0.31976E-02   512   0.304E-02-0.237E-04
CGA:  14    -0.574747639894E+02   -0.10190E-02   -0.10201E-02   512   0.830E-03-0.989E-05
CGA:  15    -0.574750384502E+02   -0.27446E-03   -0.27443E-03   512   0.208E-03 0.339E-06
CGA:  16    -0.574751097118E+02   -0.71262E-04   -0.71056E-04   512   0.535E-04 0.197E-05
CGA:  17    -0.574751293424E+02   -0.19631E-04   -0.19485E-04   512   0.151E-04 0.124E-05
CGA:  18    -0.574751350780E+02   -0.57356E-05   -0.56735E-05   512   0.424E-05 0.542E-06
CGA:  19    -0.574751367691E+02   -0.16911E-05   -0.16812E-05   512   0.120E-05 0.994E-07
CGA:  20    -0.574751372623E+02   -0.49326E-06   -0.50836E-06   512   0.352E-06-0.803E-07
CGA:  21    -0.574751373997E+02   -0.13739E-06   -0.15346E-06   512   0.119E-06-0.654E-07
CGA:  22    -0.574751374385E+02   -0.38733E-07   -0.54572E-07   512   0.625E-07-0.427E-07
CGA:  23    -0.574751374527E+02   -0.14290E-07   -0.20164E-07   512   0.287E-07-0.132E-07
CGA:  24    -0.574751374595E+02   -0.67021E-08   -0.13303E-07   512   0.177E-07-0.956E-08
   1 F= -.57475137E+02 E0= -.57475137E+02  d E =-.134516E-14
 Found    15 degrees of freedom:
       N       E                     dE             d eps       ncg     rms          ort
SDA:   1    -0.574112687038E+02    0.63869E-01    0.00000E+00   512   0.119E+00 0.000E+00
CGA:   2    -0.574621361320E+02   -0.50867E-01   -0.50892E-01   512   0.432E-01-0.197E-03
CGA:   3    -0.574718800308E+02   -0.97439E-02   -0.97494E-02   512   0.704E-02-0.122E-04
CGA:   4    -0.574734366792E+02   -0.15566E-02   -0.15571E-02   512   0.147E-02 0.343E-06
CGA:   5    -0.574737958860E+02   -0.35921E-03   -0.35949E-03   512   0.332E-03 0.281E-05
CGA:   6    -0.574738946442E+02   -0.98758E-04   -0.98782E-04   512   0.992E-04 0.659E-06
CGA:   7    -0.574739273000E+02   -0.32656E-04   -0.32656E-04   512   0.333E-04 0.214E-06
CGA:   8    -0.574739387515E+02   -0.11452E-04   -0.11447E-04   512   0.101E-04 0.316E-06
CGA:   9    -0.574739423663E+02   -0.36148E-05   -0.36153E-05   512   0.271E-05 0.435E-07
CGA:  10    -0.574739433302E+02   -0.96385E-06   -0.96505E-06   512   0.676E-06 0.211E-07
CGA:  11    -0.574739435739E+02   -0.24372E-06   -0.24431E-06   512   0.179E-06 0.403E-07
CGA:  12    -0.574739436502E+02   -0.76278E-07   -0.77416E-07   512   0.602E-07 0.111E-07
CGA:  13    -0.574739436774E+02   -0.27193E-07   -0.29347E-07   512   0.225E-07 0.769E-09
CGA:  14    -0.574739436859E+02   -0.84983E-08   -0.11313E-07   512   0.874E-08-0.209E-08
CGA:  15    -0.574739436292E+02    0.56712E-07   -0.30583E-07   512   0.173E-06-0.338E-07
CGA:  16    -0.574739436769E+02   -0.47693E-07   -0.49448E-07   512   0.171E-07 0.271E-08
CGA:  17    -0.574739436855E+02   -0.86629E-08   -0.10250E-07   512   0.985E-08-0.410E-08
   2 F= -.57473944E+02 E0= -.57473944E+02  d E =-.284035E-43
       N       E                     dE             d eps       ncg     rms          ort
SDA:   1    -0.572247404398E+02    0.24920E+00    0.00000E+00   512   0.468E+00 0.000E+00
CGA:   2    -0.574274289186E+02   -0.20269E+00   -0.20297E+00   512   0.171E+00 0.141E-03
CGA:   3    -0.574659504307E+02   -0.38522E-01   -0.38388E-01   512   0.272E-01 0.611E-03
CGA:   4    -0.574719475367E+02   -0.59971E-02   -0.59974E-02   512   0.575E-02 0.107E-04
CGA:   5    -0.574733573592E+02   -0.14098E-02   -0.14098E-02   512   0.132E-02-0.450E-05
CGA:   6    -0.574737475078E+02   -0.39015E-03   -0.39013E-03   512   0.402E-03-0.765E-06
CGA:   7    -0.574738797956E+02   -0.13229E-03   -0.13236E-03   512   0.139E-03 0.989E-07
CGA:   8    -0.574739281896E+02   -0.48394E-04   -0.48419E-04   512   0.440E-04 0.465E-07
CGA:   9    -0.574739434677E+02   -0.15278E-04   -0.15321E-04   512   0.116E-04 0.227E-06
CGA:  10    -0.574739475689E+02   -0.41012E-05   -0.41138E-05   512   0.296E-05 0.675E-07
CGA:  11    -0.574739487396E+02   -0.11707E-05   -0.11668E-05   512   0.918E-06-0.531E-07
CGA:  12    -0.574739491365E+02   -0.39686E-06   -0.39712E-06   512   0.335E-06-0.299E-07
CGA:  13    -0.574739492900E+02   -0.15354E-06   -0.15526E-06   512   0.127E-06-0.206E-07
CGA:  14    -0.574739493462E+02   -0.56144E-07   -0.58111E-07   512   0.445E-07-0.122E-07
CGA:  15    -0.574739493630E+02   -0.16833E-07   -0.18637E-07   512   0.134E-07-0.310E-08
CGA:  16    -0.574739493668E+02   -0.38171E-08   -0.95554E-08   512   0.154E-07-0.928E-08
   3 F= -.57473949E+02 E0= -.57473949E+02  d E =-.773129E-68
       N       E                     dE             d eps       ncg     rms          ort
SDA:   1    -0.573558283988E+02    0.11812E+00    0.00000E+00   512   0.222E+00 0.000E+00
CGA:   2    -0.574503812395E+02   -0.94553E-01   -0.94513E-01   512   0.830E-01-0.206E-03
CGA:   3    -0.574696707156E+02   -0.19289E-01   -0.19315E-01   512   0.132E-01-0.596E-04
CGA:   4    -0.574726062594E+02   -0.29355E-02   -0.29366E-02   512   0.274E-02-0.152E-05
CGA:   5    -0.574732874803E+02   -0.68122E-03   -0.68176E-03   512   0.646E-03 0.146E-05
CGA:   6    -0.574734798503E+02   -0.19237E-03   -0.19248E-03   512   0.196E-03 0.324E-06
CGA:   7    -0.574735451505E+02   -0.65300E-04   -0.65338E-04   512   0.668E-04 0.232E-06
CGA:   8    -0.574735683268E+02   -0.23176E-04   -0.23207E-04   512   0.207E-04 0.294E-06
CGA:   9    -0.574735757285E+02   -0.74018E-05   -0.74083E-05   512   0.581E-05 0.555E-07
CGA:  10    -0.574735778696E+02   -0.21410E-05   -0.21454E-05   512   0.168E-05 0.428E-07
CGA:  11    -0.574735785409E+02   -0.67129E-06   -0.67416E-06   512   0.565E-06 0.410E-07
CGA:  12    -0.574735787982E+02   -0.25729E-06   -0.25912E-06   512   0.217E-06 0.310E-08
CGA:  13    -0.574735788944E+02   -0.96202E-07   -0.98144E-07   512   0.724E-07 0.229E-09
CGA:  14    -0.574735789263E+02   -0.31921E-07   -0.34111E-07   512   0.247E-07-0.499E-08
CGA:  15    -0.574735789360E+02   -0.97580E-08   -0.14451E-07   512   0.160E-07-0.104E-07
   4 F= -.57473579E+02 E0= -.57473579E+02  d E =-.924051E-21
       N       E                     dE             d eps       ncg     rms          ort
SDA:   1    -0.572560378092E+02    0.21754E+00    0.00000E+00   512   0.406E+00 0.000E+00
CGA:   2    -0.574290433220E+02   -0.17301E+00   -0.17300E+00   512   0.155E+00-0.234E-03
CGA:   3    -0.574662658150E+02   -0.37222E-01   -0.37228E-01   512   0.239E-01 0.398E-04
CGA:   4    -0.574716662539E+02   -0.54004E-02   -0.54018E-02   512   0.507E-02-0.109E-06
CGA:   5    -0.574729756349E+02   -0.13094E-02   -0.13097E-02   512   0.133E-02-0.592E-06
CGA:   6    -0.574733762663E+02   -0.40063E-03   -0.40070E-03   512   0.416E-03-0.134E-06
CGA:   7    -0.574735138267E+02   -0.13756E-03   -0.13759E-03   512   0.135E-03 0.147E-06
CGA:   8    -0.574735599802E+02   -0.46154E-04   -0.46173E-04   512   0.395E-04 0.229E-06
CGA:   9    -0.574735739693E+02   -0.13989E-04   -0.13999E-04   512   0.112E-04 0.157E-06
CGA:  10    -0.574735782475E+02   -0.42781E-05   -0.42815E-05   512   0.366E-05 0.711E-07
CGA:  11    -0.574735798335E+02   -0.15861E-05   -0.15877E-05   512   0.143E-05 0.859E-08
CGA:  12    -0.574735804864E+02   -0.65287E-06   -0.65577E-06   512   0.554E-06-0.168E-07
CGA:  13    -0.574735807306E+02   -0.24418E-06   -0.24685E-06   512   0.184E-06-0.157E-07
CGA:  14    -0.574735808091E+02   -0.78465E-07   -0.80815E-07   512   0.573E-07-0.984E-08
CGA:  15    -0.574735808324E+02   -0.23291E-07   -0.25730E-07   512   0.183E-07-0.614E-08
CGA:  16    -0.574735808382E+02   -0.58117E-08   -0.10411E-07   512   0.121E-07-0.822E-08
   5 F= -.57473581E+02 E0= -.57473581E+02  d E =-.249812E-20
       N       E                     dE             d eps       ncg     rms          ort
SDA:   1    -0.573708576291E+02    0.10272E+00    0.00000E+00   512   0.193E+00 0.000E+00
CGA:   2    -0.574566117658E+02   -0.85754E-01   -0.85751E-01   512   0.617E-01-0.169E-03
CGA:   3    -0.574708893907E+02   -0.14278E-01   -0.14275E-01   512   0.126E-01 0.170E-04
CGA:   4    -0.574736231631E+02   -0.27338E-02   -0.27346E-02   512   0.273E-02-0.142E-05
CGA:   5    -0.574743407346E+02   -0.71757E-03   -0.71776E-03   512   0.716E-03-0.274E-06
CGA:   6    -0.574745564760E+02   -0.21574E-03   -0.21576E-03   512   0.225E-03-0.578E-07
CGA:   7    -0.574746279511E+02   -0.71475E-04   -0.71490E-04   512   0.642E-04 0.595E-07
CGA:   8    -0.574746484223E+02   -0.20471E-04   -0.20484E-04   512   0.155E-04 0.107E-06
CGA:   9    -0.574746535029E+02   -0.50806E-05   -0.50875E-05   512   0.375E-05 0.630E-07
CGA:  10    -0.574746548778E+02   -0.13748E-05   -0.13779E-05   512   0.119E-05 0.298E-07
CGA:  11    -0.574746553961E+02   -0.51836E-06   -0.52020E-06   512   0.508E-06 0.100E-07
CGA:  12    -0.574746556297E+02   -0.23357E-06   -0.23605E-06   512   0.204E-06-0.411E-08
CGA:  13    -0.574746557162E+02   -0.86497E-07   -0.88988E-07   512   0.640E-07-0.837E-08
CGA:  14    -0.574746557415E+02   -0.25295E-07   -0.27983E-07   512   0.207E-07-0.831E-08
CGA:  15    -0.574746557474E+02   -0.59563E-08   -0.11396E-07   512   0.147E-07-0.106E-07
   6 F= -.57474656E+02 E0= -.57474656E+02  d E =-.412071E-20
       N       E                     dE             d eps       ncg     rms          ort
SDA:   1    -0.572669836623E+02    0.20767E+00    0.00000E+00   512   0.386E+00 0.000E+00
CGA:   2    -0.574380157445E+02   -0.17103E+00   -0.17107E+00   512   0.125E+00-0.758E-03
CGA:   3    -0.574669614240E+02   -0.28946E-01   -0.28936E-01   512   0.254E-01 0.546E-04
CGA:   4    -0.574725350193E+02   -0.55736E-02   -0.55754E-02   512   0.555E-02-0.119E-05
CGA:   5    -0.574740029011E+02   -0.14679E-02   -0.14682E-02   512   0.147E-02-0.818E-07
CGA:   6    -0.574744494077E+02   -0.44651E-03   -0.44652E-03   512   0.464E-03-0.175E-06
CGA:   7    -0.574745981447E+02   -0.14874E-03   -0.14876E-03   512   0.134E-03 0.101E-06
CGA:   8    -0.574746409512E+02   -0.42807E-04   -0.42825E-04   512   0.329E-04 0.222E-06
CGA:   9    -0.574746517796E+02   -0.10828E-04   -0.10838E-04   512   0.808E-05 0.134E-06
CGA:  10    -0.574746547726E+02   -0.29929E-05   -0.29954E-05   512   0.257E-05 0.640E-07
CGA:  11    -0.574746558934E+02   -0.11209E-05   -0.11217E-05   512   0.108E-05 0.232E-07
CGA:  12    -0.574746563862E+02   -0.49271E-06   -0.49523E-06   512   0.421E-06-0.650E-08
CGA:  13    -0.574746565665E+02   -0.18037E-06   -0.18305E-06   512   0.131E-06-0.133E-07
CGA:  14    -0.574746566202E+02   -0.53695E-07   -0.56232E-07   512   0.405E-07-0.104E-07
CGA:  15    -0.574746566362E+02   -0.15967E-07   -0.19783E-07   512   0.176E-07-0.106E-07
CGA:  16    -0.574746566377E+02   -0.14652E-08   -0.10461E-07   512   0.215E-07-0.135E-07
   7 F= -.57474657E+02 E0= -.57474657E+02  d E =-.133131E-19
       N       E                     dE             d eps       ncg     rms          ort
SDA:   1    -0.573898182463E+02    0.84838E-01    0.00000E+00   512   0.156E+00 0.000E+00
CGA:   2    -0.574574413423E+02   -0.67623E-01   -0.67625E-01   512   0.545E-01-0.347E-04
CGA:   3    -0.574703240618E+02   -0.12883E-01   -0.12880E-01   512   0.966E-02 0.105E-04
CGA:   4    -0.574724557276E+02   -0.21317E-02   -0.21323E-02   512   0.214E-02-0.149E-05
CGA:   5    -0.574729950478E+02   -0.53932E-03   -0.53960E-03   512   0.537E-03 0.758E-06
CGA:   6    -0.574731565861E+02   -0.16154E-03   -0.16157E-03   512   0.167E-03 0.184E-06
CGA:   7    -0.574732103634E+02   -0.53777E-04   -0.53789E-04   512   0.505E-04 0.893E-07
CGA:   8    -0.574732267893E+02   -0.16426E-04   -0.16436E-04   512   0.133E-04 0.131E-06
CGA:   9    -0.574732312911E+02   -0.45017E-05   -0.45035E-05   512   0.356E-05-0.569E-08
CGA:  10    -0.574732326450E+02   -0.13539E-05   -0.13560E-05   512   0.122E-05-0.101E-07
CGA:  11    -0.574732331743E+02   -0.52931E-06   -0.53104E-06   512   0.511E-06 0.103E-07
CGA:  12    -0.574732334096E+02   -0.23536E-06   -0.23842E-06   512   0.203E-06-0.736E-08
CGA:  13    -0.574732334941E+02   -0.84479E-07   -0.86934E-07   512   0.613E-07-0.475E-08
CGA:  14    -0.574732335183E+02   -0.24174E-07   -0.26912E-07   512   0.189E-07-0.590E-08
CGA:  15    -0.574732335222E+02   -0.39518E-08   -0.12281E-07   512   0.202E-07-0.137E-07
   8 F= -.57473234E+02 E0= -.57473234E+02  d E =-.171294E-11
       N       E                     dE             d eps       ncg     rms          ort
SDA:   1    -0.573584421135E+02    0.11479E+00    0.00000E+00   512   0.205E+00 0.000E+00
CGA:   2    -0.574527635828E+02   -0.94321E-01   -0.94315E-01   512   0.761E-01-0.457E-05
CGA:   3    -0.574702503011E+02   -0.17487E-01   -0.17497E-01   512   0.947E-02-0.812E-05
CGA:   4    -0.574724238812E+02   -0.21736E-02   -0.21740E-02   512   0.208E-02 0.316E-06
CGA:   5    -0.574729380992E+02   -0.51422E-03   -0.51414E-03   512   0.572E-03-0.186E-05
CGA:   6    -0.574731093423E+02   -0.17124E-03   -0.17123E-03   512   0.188E-03-0.435E-06
CGA:   7    -0.574731710976E+02   -0.61755E-04   -0.61757E-04   512   0.645E-04-0.617E-07
CGA:   8    -0.574731932736E+02   -0.22176E-04   -0.22177E-04   512   0.213E-04-0.205E-07
CGA:   9    -0.574732008957E+02   -0.76220E-05   -0.76258E-05   512   0.690E-05 0.130E-06
CGA:  10    -0.574732035208E+02   -0.26252E-05   -0.26265E-05   512   0.229E-05 0.598E-07
CGA:  11    -0.574732044380E+02   -0.91721E-06   -0.91938E-06   512   0.778E-06-0.157E-07
CGA:  12    -0.574732047481E+02   -0.31007E-06   -0.31195E-06   512   0.250E-06-0.632E-08
CGA:  13    -0.574732048524E+02   -0.10430E-06   -0.10681E-06   512   0.827E-07-0.119E-07
CGA:  14    -0.574732048866E+02   -0.34232E-07   -0.37403E-07   512   0.296E-07-0.116E-07
CGA:  15    -0.574732048968E+02   -0.10162E-07   -0.13622E-07   512   0.132E-07-0.771E-08
CGA:  16    -0.574732048847E+02    0.12092E-07   -0.12799E-07   512   0.634E-07-0.212E-07
CGA:  17    -0.574732049012E+02   -0.16535E-07   -0.17589E-07   512   0.607E-08 0.204E-09
CGA:  18    -0.574732048993E+02    0.19745E-08   -0.60389E-08   512   0.181E-07-0.730E-08
   9 F= -.57473205E+02 E0= -.57473205E+02  d E =-.355140E-13
       N       E                     dE             d eps       ncg     rms          ort
SDA:   1    -0.574172895170E+02    0.55915E-01    0.00000E+00   512   0.996E-01 0.000E+00
CGA:   2    -0.574637261629E+02   -0.46437E-01   -0.46438E-01   512   0.364E-01-0.455E-04
CGA:   3    -0.574717473933E+02   -0.80212E-02   -0.80168E-02   512   0.487E-02 0.101E-04
CGA:   4    -0.574728651052E+02   -0.11177E-02   -0.11180E-02   512   0.106E-02-0.173E-05
CGA:   5    -0.574731224316E+02   -0.25733E-03   -0.25757E-03   512   0.283E-03 0.582E-06
CGA:   6    -0.574732057187E+02   -0.83287E-04   -0.83392E-04   512   0.897E-04 0.727E-06
CGA:   7    -0.574732351353E+02   -0.29417E-04   -0.29433E-04   512   0.313E-04 0.144E-06
CGA:   8    -0.574732458984E+02   -0.10763E-04   -0.10760E-04   512   0.106E-04-0.742E-07
CGA:   9    -0.574732497658E+02   -0.38674E-05   -0.38664E-05   512   0.363E-05-0.687E-07
CGA:  10    -0.574732511804E+02   -0.14146E-05   -0.14158E-05   512   0.130E-05-0.388E-07
CGA:  11    -0.574732516973E+02   -0.51684E-06   -0.51845E-06   512   0.442E-06 0.813E-08
CGA:  12    -0.574732518682E+02   -0.17089E-06   -0.17271E-06   512   0.133E-06 0.221E-07
CGA:  13    -0.574732519236E+02   -0.55396E-07   -0.57074E-07   512   0.404E-07 0.182E-08
CGA:  14    -0.574732519398E+02   -0.16229E-07   -0.18160E-07   512   0.122E-07-0.329E-08
CGA:  15    -0.574732519420E+02   -0.21746E-08   -0.81564E-08   512   0.143E-07-0.933E-08
  10 F= -.57473252E+02 E0= -.57473252E+02  d E =-.747528E-14
       N       E                     dE             d eps       ncg     rms          ort
SDA:   1    -0.573601428717E+02    0.11311E+00    0.00000E+00   512   0.206E+00 0.000E+00
CGA:   2    -0.574522639798E+02   -0.92121E-01   -0.92130E-01   512   0.770E-01-0.171E-03
CGA:   3    -0.574699203783E+02   -0.17656E-01   -0.17676E-01   512   0.115E-01-0.387E-04
CGA:   4    -0.574724391084E+02   -0.25187E-02   -0.25191E-02   512   0.235E-02 0.141E-06
CGA:   5    -0.574730003778E+02   -0.56127E-03   -0.56145E-03   512   0.568E-03 0.587E-07
CGA:   6    -0.574731663539E+02   -0.16598E-03   -0.16593E-03   512   0.171E-03-0.831E-06
CGA:   7    -0.574732209260E+02   -0.54572E-04   -0.54570E-04   512   0.558E-04-0.127E-06
CGA:   8    -0.574732395231E+02   -0.18597E-04   -0.18611E-04   512   0.168E-04 0.245E-06
CGA:   9    -0.574732454400E+02   -0.59169E-05   -0.59212E-05   512   0.497E-05 0.811E-07
CGA:  10    -0.574732472820E+02   -0.18420E-05   -0.18441E-05   512   0.155E-05 0.282E-07
CGA:  11    -0.574732479089E+02   -0.62690E-06   -0.62864E-06   512   0.550E-06 0.577E-08
CGA:  12    -0.574732481625E+02   -0.25361E-06   -0.25955E-06   512   0.240E-06-0.403E-07
CGA:  13    -0.574732482649E+02   -0.10231E-06   -0.10723E-06   512   0.916E-07-0.271E-07
CGA:  14    -0.574732483001E+02   -0.35219E-07   -0.38469E-07   512   0.301E-07-0.119E-07
CGA:  15    -0.574732483104E+02   -0.10295E-07   -0.13856E-07   512   0.126E-07-0.805E-08
CGA:  16    -0.574732483124E+02   -0.20727E-08   -0.47470E-08   512   0.494E-08-0.304E-08
CGA:  17    -0.574732483138E+02   -0.13988E-08    0.14768E-07   512   0.158E-08 0.116E-09
  11 F= -.57473248E+02 E0= -.57473248E+02  d E =-.284776E-25
       N       E                     dE             d eps       ncg     rms          ort
SDA:   1    -0.574214176491E+02    0.51831E-01    0.00000E+00   512   0.962E-01 0.000E+00
CGA:   2    -0.574661810168E+02   -0.44763E-01   -0.44771E-01   512   0.287E-01-0.875E-04
CGA:   3    -0.574730385769E+02   -0.68576E-02   -0.68552E-02   512   0.497E-02 0.550E-05
CGA:   4    -0.574740837160E+02   -0.10451E-02   -0.10455E-02   512   0.104E-02-0.111E-05
CGA:   5    -0.574743379436E+02   -0.25423E-03   -0.25430E-03   512   0.254E-03-0.158E-06
CGA:   6    -0.574744109169E+02   -0.72973E-04   -0.73019E-04   512   0.785E-04 0.364E-06
CGA:   7    -0.574744360015E+02   -0.25085E-04   -0.25090E-04   512   0.246E-04 0.386E-07
CGA:   8    -0.574744441319E+02   -0.81304E-05   -0.81292E-05   512   0.696E-05-0.682E-07
CGA:   9    -0.574744464536E+02   -0.23217E-05   -0.23237E-05   512   0.186E-05 0.107E-07
CGA:  10    -0.574744471392E+02   -0.68567E-06   -0.68748E-06   512   0.605E-06-0.346E-08
CGA:  11    -0.574744473948E+02   -0.25554E-06   -0.25762E-06   512   0.250E-06-0.156E-08
CGA:  12    -0.574744475016E+02   -0.10678E-06   -0.10810E-06   512   0.954E-07 0.112E-07
CGA:  13    -0.574744475433E+02   -0.41740E-07   -0.43753E-07   512   0.331E-07 0.580E-09
CGA:  14    -0.574744475567E+02   -0.13384E-07   -0.16105E-07   512   0.120E-07-0.500E-08
CGA:  15    -0.574744475583E+02   -0.16535E-08   -0.69001E-08   512   0.101E-07-0.743E-08
  12 F= -.57474448E+02 E0= -.57474448E+02  d E =-.115850E-21
       N       E                     dE             d eps       ncg     rms          ort
SDA:   1    -0.573684665005E+02    0.10598E+00    0.00000E+00   512   0.192E+00 0.000E+00
CGA:   2    -0.574578184932E+02   -0.89352E-01   -0.89383E-01   512   0.575E-01-0.347E-03
CGA:   3    -0.574715628951E+02   -0.13744E-01   -0.13736E-01   512   0.101E-01 0.164E-04
CGA:   4    -0.574736856771E+02   -0.21228E-02   -0.21234E-02   512   0.215E-02-0.175E-05
CGA:   5    -0.574742133228E+02   -0.52765E-03   -0.52779E-03   512   0.538E-03-0.321E-06
CGA:   6    -0.574743687037E+02   -0.15538E-03   -0.15545E-03   512   0.170E-03 0.489E-06
CGA:   7    -0.574744231936E+02   -0.54490E-04   -0.54499E-04   512   0.537E-04 0.698E-07
CGA:   8    -0.574744409788E+02   -0.17785E-04   -0.17783E-04   512   0.153E-04-0.930E-07
CGA:   9    -0.574744461067E+02   -0.51279E-05   -0.51303E-05   512   0.414E-05 0.201E-07
CGA:  10    -0.574744476339E+02   -0.15272E-05   -0.15289E-05   512   0.134E-05 0.173E-08
CGA:  11    -0.574744481974E+02   -0.56345E-06   -0.56502E-06   512   0.540E-06 0.423E-08
CGA:  12    -0.574744484300E+02   -0.23264E-06   -0.23324E-06   512   0.203E-06 0.212E-07
CGA:  13    -0.574744485196E+02   -0.89524E-07   -0.91170E-07   512   0.691E-07 0.373E-08
CGA:  14    -0.574744485491E+02   -0.29563E-07   -0.31724E-07   512   0.226E-07-0.426E-08
CGA:  15    -0.574744485572E+02   -0.80572E-08   -0.10998E-07   512   0.916E-08-0.539E-08
CGA:  16    -0.574744485219E+02    0.35254E-07   -0.13284E-07   512   0.117E-06-0.269E-07
CGA:  17    -0.574744485544E+02   -0.32501E-07   -0.33757E-07   512   0.102E-07 0.114E-08
CGA:  18    -0.574744485576E+02   -0.32123E-08   -0.85351E-08   512   0.139E-07-0.647E-08
  13 F= -.57474449E+02 E0= -.57474449E+02  d E =-.518595E-17
       N       E                     dE             d eps       ncg     rms          ort
SDA:   1    -0.574177033201E+02    0.56745E-01    0.00000E+00   512   0.100E+00 0.000E+00
CGA:   2    -0.574639946282E+02   -0.46291E-01   -0.46291E-01   512   0.333E-01-0.153E-05
CGA:   3    -0.574717651715E+02   -0.77705E-02   -0.77757E-02   512   0.483E-02 0.508E-06
CGA:   4    -0.574728412543E+02   -0.10761E-02   -0.10766E-02   512   0.103E-02 0.674E-07
CGA:   5    -0.574730883008E+02   -0.24705E-03   -0.24700E-03   512   0.262E-03-0.928E-06
CGA:   6    -0.574731645660E+02   -0.76265E-04   -0.76236E-04   512   0.817E-04-0.326E-06
CGA:   7    -0.574731912556E+02   -0.26690E-04   -0.26690E-04   512   0.275E-04-0.326E-07
CGA:   8    -0.574732005738E+02   -0.93182E-05   -0.93200E-05   512   0.865E-05-0.242E-08
CGA:   9    -0.574732036035E+02   -0.30297E-05   -0.30348E-05   512   0.267E-05 0.536E-07
CGA:  10    -0.574732046140E+02   -0.10105E-05   -0.10132E-05   512   0.907E-06 0.335E-07
CGA:  11    -0.574732049966E+02   -0.38260E-06   -0.38427E-06   512   0.342E-06-0.107E-07
CGA:  12    -0.574732051396E+02   -0.14301E-06   -0.14483E-06   512   0.118E-06-0.814E-08
CGA:  13    -0.574732051881E+02   -0.48572E-07   -0.50384E-07   512   0.385E-07-0.675E-08
CGA:  14    -0.574732052038E+02   -0.15675E-07   -0.18416E-07   512   0.160E-07-0.871E-08
CGA:  15    -0.574732052079E+02   -0.40554E-08   -0.68079E-08   512   0.737E-08-0.502E-08
CGA:  16    -0.574732051444E+02    0.63447E-07   -0.34424E-07   512   0.207E-06-0.295E-07
CGA:  17    -0.574732051997E+02   -0.55318E-07   -0.57645E-07   512   0.182E-07 0.337E-08
CGA:  18    -0.574732052080E+02   -0.82309E-08   -0.87679E-08   512   0.746E-08-0.177E-08
  14 F= -.57473205E+02 E0= -.57473205E+02  d E =-.624986E-13
       N       E                     dE             d eps       ncg     rms          ort
SDA:   1    -0.573577335273E+02    0.11547E+00    0.00000E+00   512   0.207E+00 0.000E+00
CGA:   2    -0.574528004646E+02   -0.95067E-01   -0.94977E-01   512   0.753E-01 0.501E-04
CGA:   3    -0.574702763578E+02   -0.17476E-01   -0.17467E-01   512   0.955E-02 0.777E-04
CGA:   4    -0.574724731103E+02   -0.21968E-02   -0.21978E-02   512   0.205E-02-0.255E-05
CGA:   5    -0.574729745237E+02   -0.50141E-03   -0.50206E-03   512   0.552E-03 0.311E-06
CGA:   6    -0.574731383693E+02   -0.16385E-03   -0.16402E-03   512   0.181E-03 0.178E-06
CGA:   7    -0.574731985503E+02   -0.60181E-04   -0.60244E-04   512   0.641E-04 0.104E-06
CGA:   8    -0.574732209616E+02   -0.22411E-04   -0.22437E-04   512   0.219E-04 0.660E-07
CGA:   9    -0.574732290175E+02   -0.80559E-05   -0.80420E-05   512   0.738E-05-0.742E-07
CGA:  10    -0.574732318258E+02   -0.28083E-05   -0.28031E-05   512   0.242E-05-0.354E-07
CGA:  11    -0.574732327644E+02   -0.93863E-06   -0.94209E-06   512   0.775E-06 0.993E-08
CGA:  12    -0.574732330799E+02   -0.31550E-06   -0.31683E-06   512   0.249E-06-0.181E-08
CGA:  13    -0.574732331826E+02   -0.10261E-06   -0.10402E-06   512   0.766E-07-0.115E-08
CGA:  14    -0.574732332146E+02   -0.32044E-07   -0.33455E-07   512   0.238E-07-0.241E-08
CGA:  15    -0.574732332246E+02   -0.10019E-07   -0.11880E-07   512   0.100E-07-0.427E-08
CGA:  16    -0.574732332271E+02   -0.25175E-08   -0.48457E-08   512   0.539E-08-0.317E-08
  15 F= -.57473233E+02 E0= -.57473233E+02  d E =-.204121E-11
       N       E                     dE             d eps       ncg     rms          ort
SDA:   1    -0.574151282859E+02    0.58105E-01    0.00000E+00   512   0.106E+00 0.000E+00
CGA:   2    -0.574624191032E+02   -0.47291E-01   -0.47293E-01   512   0.388E-01-0.210E-04
CGA:   3    -0.574716587774E+02   -0.92397E-02   -0.92355E-02   512   0.552E-02 0.260E-04
CGA:   4    -0.574728585626E+02   -0.11998E-02   -0.12002E-02   512   0.115E-02-0.153E-05
CGA:   5    -0.574731303608E+02   -0.27180E-03   -0.27178E-03   512   0.273E-03-0.103E-05
CGA:   6    -0.574732104420E+02   -0.80081E-04   -0.80157E-04   512   0.840E-04 0.184E-06
CGA:   7    -0.574732374676E+02   -0.27026E-04   -0.27035E-04   512   0.282E-04 0.864E-08
CGA:   8    -0.574732469611E+02   -0.94935E-05   -0.94797E-05   512   0.880E-05-0.950E-07
CGA:   9    -0.574732500147E+02   -0.30536E-05   -0.30609E-05   512   0.258E-05 0.338E-07
CGA:  10    -0.574732509695E+02   -0.95471E-06   -0.95748E-06   512   0.784E-06 0.114E-07
CGA:  11    -0.574732512760E+02   -0.30654E-06   -0.30803E-06   512   0.252E-06 0.191E-08
CGA:  12    -0.574732513745E+02   -0.98492E-07   -0.10060E-06   512   0.784E-07 0.918E-08
CGA:  13    -0.574732514088E+02   -0.34293E-07   -0.35706E-07   512   0.275E-07-0.473E-09
CGA:  14    -0.574732514206E+02   -0.11784E-07   -0.13470E-07   512   0.110E-07-0.405E-08
CGA:  15    -0.574732514236E+02   -0.30841E-08   -0.56987E-08   512   0.763E-08-0.499E-08
  16 F= -.57473251E+02 E0= -.57473251E+02  d E =-.797594E-14
       N       E                     dE             d eps       ncg     rms          ort
SDA:   1    -0.573601325592E+02    0.11312E+00    0.00000E+00   512   0.206E+00 0.000E+00
CGA:   2    -0.574522394978E+02   -0.92107E-01   -0.92089E-01   512   0.771E-01-0.104E-03
CGA:   3    -0.574699176151E+02   -0.17678E-01   -0.17710E-01   512   0.115E-01-0.768E-04
CGA:   4    -0.574724391391E+02   -0.25215E-02   -0.25220E-02   512   0.235E-02 0.191E-06
CGA:   5    -0.574730007644E+02   -0.56163E-03   -0.56185E-03   512   0.568E-03-0.142E-06
CGA:   6    -0.574731668079E+02   -0.16604E-03   -0.16597E-03   512   0.171E-03-0.758E-06
CGA:   7    -0.574732214126E+02   -0.54605E-04   -0.54600E-04   512   0.558E-04-0.121E-06
CGA:   8    -0.574732400320E+02   -0.18619E-04   -0.18647E-04   512   0.169E-04 0.204E-06
CGA:   9    -0.574732459575E+02   -0.59255E-05   -0.59342E-05   512   0.498E-05 0.680E-07
CGA:  10    -0.574732478022E+02   -0.18446E-05   -0.18480E-05   512   0.155E-05 0.245E-07
CGA:  11    -0.574732484301E+02   -0.62796E-06   -0.62989E-06   512   0.552E-06 0.557E-08
CGA:  12    -0.574732486845E+02   -0.25439E-06   -0.25713E-06   512   0.235E-06-0.338E-07
CGA:  13    -0.574732487870E+02   -0.10250E-06   -0.10532E-06   512   0.885E-07-0.226E-07
CGA:  14    -0.574732488222E+02   -0.35246E-07   -0.37497E-07   512   0.286E-07-0.994E-08
CGA:  15    -0.574732488327E+02   -0.10460E-07   -0.13008E-07   512   0.111E-07-0.654E-08
CGA:  16    -0.574732488349E+02   -0.21791E-08   -0.42231E-08   512   0.399E-08-0.226E-08
CGA:  17    -0.574732488360E+02   -0.10750E-08    0.31740E-06   512   0.134E-08-0.245E-09
  17 F= -.57473249E+02 E0= -.57473249E+02  d E =-.287677E-25
       N       E                     dE             d eps       ncg     rms          ort
SDA:   1    -0.574214153503E+02    0.51833E-01    0.00000E+00   512   0.962E-01 0.000E+00
CGA:   2    -0.574661778756E+02   -0.44763E-01   -0.44765E-01   512   0.287E-01-0.754E-04
CGA:   3    -0.574730380108E+02   -0.68601E-02   -0.68572E-02   512   0.497E-02 0.849E-05
CGA:   4    -0.574740836253E+02   -0.10456E-02   -0.10460E-02   512   0.104E-02-0.128E-05
CGA:   5    -0.574743378931E+02   -0.25427E-03   -0.25435E-03   512   0.255E-03-0.214E-06
CGA:   6    -0.574744108759E+02   -0.72983E-04   -0.73039E-04   512   0.785E-04 0.326E-06
CGA:   7    -0.574744359646E+02   -0.25089E-04   -0.25095E-04   512   0.246E-04 0.335E-07
CGA:   8    -0.574744440960E+02   -0.81314E-05   -0.81284E-05   512   0.695E-05-0.632E-07
CGA:   9    -0.574744464177E+02   -0.23218E-05   -0.23240E-05   512   0.186E-05 0.100E-07
CGA:  10    -0.574744471032E+02   -0.68550E-06   -0.68706E-06   512   0.604E-06-0.280E-08
CGA:  11    -0.574744473585E+02   -0.25528E-06   -0.25707E-06   512   0.249E-06-0.784E-09
CGA:  12    -0.574744474652E+02   -0.10670E-06   -0.10819E-06   512   0.956E-07 0.108E-07
CGA:  13    -0.574744475070E+02   -0.41767E-07   -0.43525E-07   512   0.328E-07 0.106E-08
CGA:  14    -0.574744475205E+02   -0.13495E-07   -0.15774E-07   512   0.115E-07-0.425E-08
CGA:  15    -0.574744475228E+02   -0.23310E-08   -0.63106E-08   512   0.783E-08-0.592E-08
  18 F= -.57474448E+02 E0= -.57474448E+02  d E =-.117985E-21
       N       E                     dE             d eps       ncg     rms          ort
SDA:   1    -0.573684650216E+02    0.10598E+00    0.00000E+00   512   0.192E+00 0.000E+00
CGA:   2    -0.574578164323E+02   -0.89351E-01   -0.89372E-01   512   0.575E-01-0.323E-03
CGA:   3    -0.574715627741E+02   -0.13746E-01   -0.13737E-01   512   0.101E-01 0.210E-04
CGA:   4    -0.574736857516E+02   -0.21230E-02   -0.21236E-02   512   0.215E-02-0.190E-05
CGA:   5    -0.574742133529E+02   -0.52760E-03   -0.52776E-03   512   0.538E-03-0.371E-06
CGA:   6    -0.574743687350E+02   -0.15538E-03   -0.15546E-03   512   0.170E-03 0.459E-06
CGA:   7    -0.574744232289E+02   -0.54494E-04   -0.54504E-04   512   0.537E-04 0.654E-07
CGA:   8    -0.574744410129E+02   -0.17784E-04   -0.17781E-04   512   0.153E-04-0.898E-07
CGA:   9    -0.574744461397E+02   -0.51268E-05   -0.51295E-05   512   0.414E-05 0.193E-07
CGA:  10    -0.574744476663E+02   -0.15266E-05   -0.15283E-05   512   0.134E-05 0.172E-08
CGA:  11    -0.574744482295E+02   -0.56316E-06   -0.56472E-06   512   0.539E-06 0.411E-08
CGA:  12    -0.574744484619E+02   -0.23249E-06   -0.23331E-06   512   0.203E-06 0.207E-07
CGA:  13    -0.574744485515E+02   -0.89507E-07   -0.91036E-07   512   0.689E-07 0.391E-08
CGA:  14    -0.574744485809E+02   -0.29488E-07   -0.31563E-07   512   0.224E-07-0.394E-08
CGA:  15    -0.574744485891E+02   -0.81272E-08   -0.10922E-07   512   0.903E-08-0.522E-08
CGA:  16    -0.574744485675E+02    0.21592E-07   -0.11213E-07   512   0.773E-07-0.216E-07
CGA:  17    -0.574744485889E+02   -0.21388E-07   -0.22455E-07   512   0.684E-08 0.454E-09
CGA:  18    -0.574744485857E+02    0.31232E-08   -0.83403E-08   512   0.268E-07-0.953E-08
  19 F= -.57474449E+02 E0= -.57474449E+02  d E =-.561589E-17
       N       E                     dE             d eps       ncg     rms          ort
SDA:   1    -0.574451779547E+02    0.29271E-01    0.00000E+00   512   0.539E-01 0.000E+00
CGA:   2    -0.574702049311E+02   -0.25027E-01   -0.25026E-01   512   0.157E-01-0.200E-04
CGA:   3    -0.574739605000E+02   -0.37556E-02   -0.37571E-02   512   0.266E-02-0.751E-05
CGA:   4    -0.574745218012E+02   -0.56130E-03   -0.56158E-03   512   0.563E-03-0.760E-07
CGA:   5    -0.574746577071E+02   -0.13591E-03   -0.13598E-03   512   0.133E-03 0.760E-07
CGA:   6    -0.574746957645E+02   -0.38057E-04   -0.38033E-04   512   0.400E-04-0.218E-06
CGA:   7    -0.574747084483E+02   -0.12684E-04   -0.12687E-04   512   0.125E-04 0.328E-08
CGA:   8    -0.574747126046E+02   -0.41563E-05   -0.41645E-05   512   0.360E-05 0.645E-07
CGA:   9    -0.574747138510E+02   -0.12465E-05   -0.12477E-05   512   0.103E-05-0.410E-08
CGA:  10    -0.574747142315E+02   -0.38042E-06   -0.38224E-06   512   0.346E-06 0.402E-08
CGA:  11    -0.574747143782E+02   -0.14671E-06   -0.14856E-06   512   0.146E-06 0.374E-08
CGA:  12    -0.574747144483E+02   -0.70161E-07   -0.73336E-07   512   0.694E-07-0.119E-07
CGA:  13    -0.574747144746E+02   -0.26266E-07   -0.28307E-07   512   0.217E-07-0.538E-08
CGA:  14    -0.574747144820E+02   -0.74115E-08   -0.10091E-07   512   0.888E-08-0.574E-08
  20 F= -.57474714E+02 E0= -.57474714E+02  d E =-.199369E-20
       N       E                     dE             d eps       ncg     rms          ort
SDA:   1    -0.574626793748E+02    0.12035E-01    0.00000E+00   512   0.231E-01 0.000E+00
CGA:   2    -0.574729681104E+02   -0.10289E-01   -0.10289E-01   512   0.632E-02-0.621E-05
CGA:   3    -0.574744467202E+02   -0.14786E-02   -0.14787E-02   512   0.886E-03 0.217E-05
CGA:   4    -0.574746565513E+02   -0.20983E-03   -0.20989E-03   512   0.170E-03-0.191E-06
CGA:   5    -0.574746985553E+02   -0.42004E-04   -0.41996E-04   512   0.379E-04-0.136E-06
CGA:   6    -0.574747091859E+02   -0.10631E-04   -0.10629E-04   512   0.109E-04-0.310E-07
CGA:   7    -0.574747127606E+02   -0.35747E-05   -0.35757E-05   512   0.387E-05-0.922E-08
CGA:   8    -0.574747142038E+02   -0.14432E-05   -0.14439E-05   512   0.142E-05-0.220E-07
CGA:   9    -0.574747147364E+02   -0.53257E-06   -0.53422E-06   512   0.471E-06-0.173E-08
CGA:  10    -0.574747149196E+02   -0.18322E-06   -0.18492E-06   512   0.162E-06-0.428E-08
CGA:  11    -0.574747149889E+02   -0.69303E-07   -0.71578E-07   512   0.661E-07-0.987E-08
CGA:  12    -0.574747150146E+02   -0.25708E-07   -0.27811E-07   512   0.228E-07-0.439E-08
CGA:  13    -0.574747150229E+02   -0.82409E-08   -0.11340E-07   512   0.103E-07-0.671E-08
  21 F= -.57474715E+02 E0= -.57474715E+02  d E =-.254678E-18
       N       E                     dE             d eps       ncg     rms          ort
SDA:   1    -0.574683782602E+02    0.63368E-02    0.00000E+00   512   0.117E-01 0.000E+00
CGA:   2    -0.574734944937E+02   -0.51162E-02   -0.51162E-02   512   0.333E-02-0.749E-06
CGA:   3    -0.574742843887E+02   -0.78989E-03   -0.79013E-03   512   0.455E-03-0.861E-07
CGA:   4    -0.574743917099E+02   -0.10732E-03   -0.10736E-03   512   0.870E-04-0.664E-07
CGA:   5    -0.574744131621E+02   -0.21452E-04   -0.21467E-04   512   0.191E-04 0.434E-07
CGA:   6    -0.574744185555E+02   -0.53934E-05   -0.53987E-05   512   0.540E-05 0.270E-07
CGA:   7    -0.574744203798E+02   -0.18243E-05   -0.18253E-05   512   0.202E-05-0.937E-08
CGA:   8    -0.574744211439E+02   -0.76416E-06   -0.76595E-06   512   0.778E-06 0.594E-08
CGA:   9    -0.574744214405E+02   -0.29655E-06   -0.29839E-06   512   0.264E-06 0.730E-08
CGA:  10    -0.574744215436E+02   -0.10314E-06   -0.10487E-06   512   0.900E-07-0.103E-09
CGA:  11    -0.574744215799E+02   -0.36278E-07   -0.38100E-07   512   0.327E-07-0.586E-09
CGA:  12    -0.574744215931E+02   -0.13206E-07   -0.15605E-07   512   0.129E-07-0.371E-08
CGA:  13    -0.574744215961E+02   -0.30059E-08   -0.69122E-08   512   0.821E-08-0.626E-08
  22 F= -.57474422E+02 E0= -.57474422E+02  d E =-.309519E-19
       N       E                     dE             d eps       ncg     rms          ort
SDA:   1    -0.574626579007E+02    0.11764E-01    0.00000E+00   512   0.226E-01 0.000E+00
CGA:   2    -0.574725980240E+02   -0.99401E-02   -0.99401E-02   512   0.661E-02 0.405E-05
CGA:   3    -0.574741588827E+02   -0.15609E-02   -0.15613E-02   512   0.897E-03-0.515E-05
CGA:   4    -0.574743705074E+02   -0.21162E-03   -0.21168E-03   512   0.177E-03-0.893E-07
CGA:   5    -0.574744148559E+02   -0.44349E-04   -0.44358E-04   512   0.425E-04-0.356E-07
CGA:   6    -0.574744271747E+02   -0.12319E-04   -0.12317E-04   512   0.132E-04-0.450E-07
CGA:   7    -0.574744315123E+02   -0.43376E-05   -0.43406E-05   512   0.459E-05 0.173E-07
CGA:   8    -0.574744331266E+02   -0.16143E-05   -0.16158E-05   512   0.144E-05-0.314E-08
CGA:   9    -0.574744336401E+02   -0.51351E-06   -0.51404E-06   512   0.413E-06-0.273E-07
CGA:  10    -0.574744337886E+02   -0.14853E-06   -0.14991E-06   512   0.125E-06-0.115E-07
CGA:  11    -0.574744338380E+02   -0.49416E-07   -0.51513E-07   512   0.471E-07-0.707E-08
CGA:  12    -0.574744338575E+02   -0.19457E-07   -0.22756E-07   512   0.222E-07-0.884E-08
CGA:  13    -0.574744338639E+02   -0.63792E-08   -0.90992E-08   512   0.857E-08-0.543E-08
  23 F= -.57474434E+02 E0= -.57474434E+02  d E =-.536335E-19
       N       E                     dE             d eps       ncg     rms          ort
SDA:   1    -0.574689206649E+02    0.55132E-02    0.00000E+00   512   0.115E-01 0.000E+00
CGA:   2    -0.574742542407E+02   -0.53336E-02   -0.53336E-02   512   0.242E-02-0.156E-05
CGA:   3    -0.574748424159E+02   -0.58818E-03   -0.58837E-03   512   0.358E-03 0.517E-06
CGA:   4    -0.574749282604E+02   -0.85845E-04   -0.85852E-04   512   0.695E-04-0.139E-06
CGA:   5    -0.574749449386E+02   -0.16678E-04   -0.16683E-04   512   0.147E-04-0.441E-08
CGA:   6    -0.574749489521E+02   -0.40135E-05   -0.40170E-05   512   0.385E-05 0.128E-07
CGA:   7    -0.574749501902E+02   -0.12382E-05   -0.12387E-05   512   0.125E-05-0.106E-07
CGA:   8    -0.574749506281E+02   -0.43788E-06   -0.43925E-06   512   0.393E-06-0.245E-08
CGA:   9    -0.574749507642E+02   -0.13612E-06   -0.13786E-06   512   0.106E-06 0.297E-08
CGA:  10    -0.574749508017E+02   -0.37484E-07   -0.38970E-07   512   0.292E-07-0.238E-08
CGA:  11    -0.574749508121E+02   -0.10416E-07   -0.12421E-07   512   0.111E-07-0.364E-08
CGA:  12    -0.574749508143E+02   -0.21946E-08   -0.61547E-08   512   0.890E-08-0.505E-08
  24 F= -.57474951E+02 E0= -.57474951E+02  d E =-.370284E-19
       N       E                     dE             d eps       ncg     rms          ort
SDA:   1    -0.574628556612E+02    0.12095E-01    0.00000E+00   512   0.230E-01 0.000E+00
CGA:   2    -0.574735586415E+02   -0.10703E-01   -0.10703E-01   512   0.485E-02-0.467E-05
CGA:   3    -0.574747361968E+02   -0.11776E-02   -0.11777E-02   512   0.717E-03 0.678E-06
CGA:   4    -0.574749084711E+02   -0.17227E-03   -0.17230E-03   512   0.139E-03-0.259E-06
CGA:   5    -0.574749418486E+02   -0.33377E-04   -0.33388E-04   512   0.295E-04-0.135E-07
CGA:   6    -0.574749498445E+02   -0.79959E-05   -0.80009E-05   512   0.789E-05 0.178E-07
CGA:   7    -0.574749523271E+02   -0.24826E-05   -0.24826E-05   512   0.253E-05-0.166E-07
CGA:   8    -0.574749532099E+02   -0.88278E-06   -0.88409E-06   512   0.789E-06-0.412E-08
CGA:   9    -0.574749534848E+02   -0.27488E-06   -0.27674E-06   512   0.210E-06 0.450E-08
CGA:  10    -0.574749535591E+02   -0.74306E-07   -0.75785E-07   512   0.555E-07-0.184E-08
CGA:  11    -0.574749535797E+02   -0.20607E-07   -0.22417E-07   512   0.188E-07-0.339E-08
CGA:  12    -0.574749535861E+02   -0.63528E-08   -0.90687E-08   512   0.932E-08-0.370E-08
  25 F= -.57474954E+02 E0= -.57474954E+02  d E =-.357140E-19
       N       E                     dE             d eps       ncg     rms          ort
SDA:   1    -0.574686591603E+02    0.62944E-02    0.00000E+00   512   0.116E-01 0.000E+00
CGA:   2    -0.574739047393E+02   -0.52456E-02   -0.52456E-02   512   0.290E-02-0.604E-06
CGA:   3    -0.574745891425E+02   -0.68440E-03   -0.68457E-03   512   0.415E-03 0.431E-07
CGA:   4    -0.574746881609E+02   -0.99018E-04   -0.99045E-04   512   0.797E-04-0.553E-07
CGA:   5    -0.574747076782E+02   -0.19517E-04   -0.19513E-04   512   0.175E-04-0.631E-07
CGA:   6    -0.574747124963E+02   -0.48180E-05   -0.48170E-05   512   0.493E-05-0.229E-07
CGA:   7    -0.574747140756E+02   -0.15793E-05   -0.15807E-05   512   0.168E-05-0.239E-08
CGA:   8    -0.574747146898E+02   -0.61421E-06   -0.61554E-06   512   0.587E-06-0.147E-07
CGA:   9    -0.574747149047E+02   -0.21487E-06   -0.21644E-06   512   0.183E-06-0.815E-08
CGA:  10    -0.574747149728E+02   -0.68138E-07   -0.69885E-07   512   0.607E-07-0.631E-08
CGA:  11    -0.574747149975E+02   -0.24727E-07   -0.27641E-07   512   0.288E-07-0.889E-08
CGA:  12    -0.574747150071E+02   -0.96143E-08   -0.12803E-07   512   0.135E-07-0.654E-08
  26 F= -.57474715E+02 E0= -.57474715E+02  d E =-.329484E-18
       N       E                     dE             d eps       ncg     rms          ort
SDA:   1    -0.574626343754E+02    0.12081E-01    0.00000E+00   512   0.234E-01 0.000E+00
CGA:   2    -0.574729157316E+02   -0.10281E-01   -0.10281E-01   512   0.643E-02 0.445E-05
CGA:   3    -0.574744400483E+02   -0.15243E-02   -0.15248E-02   512   0.912E-03-0.380E-05
CGA:   4    -0.574746554197E+02   -0.21537E-03   -0.21544E-03   512   0.173E-03-0.779E-07
CGA:   5    -0.574746978902E+02   -0.42471E-04   -0.42497E-04   512   0.385E-04 0.831E-07
CGA:   6    -0.574747086194E+02   -0.10729E-04   -0.10734E-04   512   0.110E-04 0.142E-07
CGA:   7    -0.574747122381E+02   -0.36187E-05   -0.36205E-05   512   0.393E-05-0.441E-09
CGA:   8    -0.574747136919E+02   -0.14538E-05   -0.14559E-05   512   0.143E-05 0.139E-07
CGA:   9    -0.574747142352E+02   -0.54326E-06   -0.54512E-06   512   0.481E-06-0.710E-08
CGA:  10    -0.574747144184E+02   -0.18327E-06   -0.18516E-06   512   0.161E-06-0.395E-08
CGA:  11    -0.574747144823E+02   -0.63856E-07   -0.65817E-07   512   0.582E-07 0.130E-08
CGA:  12    -0.574747145073E+02   -0.25032E-07   -0.27799E-07   512   0.239E-07-0.525E-08
CGA:  13    -0.574747145151E+02   -0.78116E-08   -0.10548E-07   512   0.814E-08-0.448E-08
  27 F= -.57474715E+02 E0= -.57474715E+02  d E =-.231480E-20
       N       E                     dE             d eps       ncg     rms          ort
SDA:   1    -0.574685314992E+02    0.61830E-02    0.00000E+00   512   0.111E-01 0.000E+00
CGA:   2    -0.574735573157E+02   -0.50258E-02   -0.50259E-02   512   0.316E-02-0.306E-05
CGA:   3    -0.574742874473E+02   -0.73013E-03   -0.73054E-03   512   0.437E-03 0.251E-05
CGA:   4    -0.574743903914E+02   -0.10294E-03   -0.10298E-03   512   0.871E-04-0.777E-07
CGA:   5    -0.574744121350E+02   -0.21744E-04   -0.21738E-04   512   0.213E-04-0.848E-07
CGA:   6    -0.574744182393E+02   -0.61043E-05   -0.61058E-05   512   0.654E-05-0.519E-08
CGA:   7    -0.574744203710E+02   -0.21318E-05   -0.21324E-05   512   0.218E-05-0.155E-07
CGA:   8    -0.574744211258E+02   -0.75481E-06   -0.75584E-06   512   0.652E-06-0.128E-07
CGA:   9    -0.574744213445E+02   -0.21862E-06   -0.22060E-06   512   0.170E-06 0.832E-08
CGA:  10    -0.574744214045E+02   -0.59995E-07   -0.61665E-07   512   0.490E-07 0.492E-09
CGA:  11    -0.574744214236E+02   -0.19159E-07   -0.21406E-07   512   0.197E-07-0.582E-08
CGA:  12    -0.574744214295E+02   -0.58444E-08   -0.85273E-08   512   0.854E-08-0.427E-08
  28 F= -.57474421E+02 E0= -.57474421E+02  d E =-.244631E-19
       N       E                     dE             d eps       ncg     rms          ort
SDA:   1    -0.574626567999E+02    0.11765E-01    0.00000E+00   512   0.226E-01 0.000E+00
CGA:   2    -0.574725977233E+02   -0.99409E-02   -0.99409E-02   512   0.661E-02 0.397E-05
CGA:   3    -0.574741588025E+02   -0.15611E-02   -0.15615E-02   512   0.898E-03-0.522E-05
CGA:   4    -0.574743706249E+02   -0.21182E-03   -0.21188E-03   512   0.177E-03-0.928E-07
CGA:   5    -0.574744149432E+02   -0.44318E-04   -0.44328E-04   512   0.429E-04-0.376E-07
CGA:   6    -0.574744272596E+02   -0.12316E-04   -0.12314E-04   512   0.134E-04-0.446E-07
CGA:   7    -0.574744316366E+02   -0.43771E-05   -0.43802E-05   512   0.465E-05 0.163E-07
CGA:   8    -0.574744332726E+02   -0.16359E-05   -0.16375E-05   512   0.146E-05-0.242E-08
CGA:   9    -0.574744337925E+02   -0.51994E-06   -0.52047E-06   512   0.418E-06-0.270E-07
CGA:  10    -0.574744339424E+02   -0.14986E-06   -0.15112E-06   512   0.127E-06-0.116E-07
CGA:  11    -0.574744339919E+02   -0.49518E-07   -0.51527E-07   512   0.472E-07-0.671E-08
CGA:  12    -0.574744340114E+02   -0.19554E-07   -0.22761E-07   512   0.223E-07-0.876E-08
CGA:  13    -0.574744340179E+02   -0.64119E-08   -0.91827E-08   512   0.870E-08-0.550E-08
  29 F= -.57474434E+02 E0= -.57474434E+02  d E =-.522699E-19
       N       E                     dE             d eps       ncg     rms          ort
SDA:   1    -0.574689206929E+02    0.55133E-02    0.00000E+00   512   0.115E-01 0.000E+00
CGA:   2    -0.574742541956E+02   -0.53335E-02   -0.53335E-02   512   0.242E-02-0.155E-05
CGA:   3    -0.574748423853E+02   -0.58819E-03   -0.58839E-03   512   0.358E-03 0.507E-06
CGA:   4    -0.574749282338E+02   -0.85848E-04   -0.85856E-04   512   0.697E-04-0.141E-06
CGA:   5    -0.574749449355E+02   -0.16702E-04   -0.16707E-04   512   0.148E-04-0.517E-08
CGA:   6    -0.574749489647E+02   -0.40292E-05   -0.40328E-05   512   0.387E-05 0.128E-07
CGA:   7    -0.574749502092E+02   -0.12445E-05   -0.12449E-05   512   0.125E-05-0.105E-07
CGA:   8    -0.574749506491E+02   -0.43995E-06   -0.44139E-06   512   0.395E-06-0.259E-08
CGA:   9    -0.574749507859E+02   -0.13678E-06   -0.13849E-06   512   0.106E-06 0.300E-08
CGA:  10    -0.574749508236E+02   -0.37636E-07   -0.39157E-07   512   0.294E-07-0.240E-08
CGA:  11    -0.574749508340E+02   -0.10474E-07   -0.12472E-07   512   0.112E-07-0.364E-08
CGA:  12    -0.574749508362E+02   -0.22183E-08   -0.61796E-08   512   0.894E-08-0.507E-08
  30 F= -.57474951E+02 E0= -.57474951E+02  d E =-.378005E-19
       N       E                     dE             d eps       ncg     rms          ort
SDA:   1    -0.574628556179E+02    0.12095E-01    0.00000E+00   512   0.230E-01 0.000E+00
CGA:   2    -0.574735585761E+02   -0.10703E-01   -0.10703E-01   512   0.485E-02-0.468E-05
CGA:   3    -0.574747361669E+02   -0.11776E-02   -0.11778E-02   512   0.717E-03 0.680E-06
CGA:   4    -0.574749084418E+02   -0.17227E-03   -0.17230E-03   512   0.138E-03-0.259E-06
CGA:   5    -0.574749418126E+02   -0.33371E-04   -0.33381E-04   512   0.295E-04-0.133E-07
CGA:   6    -0.574749498041E+02   -0.79915E-05   -0.79964E-05   512   0.788E-05 0.178E-07
CGA:   7    -0.574749522845E+02   -0.24804E-05   -0.24804E-05   512   0.253E-05-0.164E-07
CGA:   8    -0.574749531666E+02   -0.88215E-06   -0.88351E-06   512   0.789E-06-0.422E-08
CGA:   9    -0.574749534414E+02   -0.27477E-06   -0.27659E-06   512   0.210E-06 0.456E-08
CGA:  10    -0.574749535157E+02   -0.74324E-07   -0.75825E-07   512   0.556E-07-0.202E-08
CGA:  11    -0.574749535362E+02   -0.20515E-07   -0.22371E-07   512   0.187E-07-0.328E-08
CGA:  12    -0.574749535426E+02   -0.63746E-08   -0.92005E-08   512   0.966E-08-0.401E-08
  31 F= -.57474954E+02 E0= -.57474954E+02  d E =-.354240E-19
