 vasp.6.4.1 05Apr23 (build Jun  6 2023 14:36:51) complex                         
 executed on        HPECrayEX_GCC date 2024.08.20  14:29:41
 running  256 mpi-ranks, with    1 threads/rank, on    2 nodes
 distrk:  each k-point on  256 cores,    1 groups
 distr:  one band on NCORE=  64 cores,    4 groups


--------------------------------------------------------------------------------------------------------


 INCAR:
   ALGO = Conjugate
   NPAR = 4
   ISMEAR = 0
   SIGMA = 0.01
   PREC = Accurate
   EDIFF = 1E-7
   ENCUT = 1000
   ISIF = 0
   GGA = RE
   LUSE_VDW = .TRUE.
   AGGAC = 0.0000
   LASPH = .TRUE.
   LWAVE = .FALSE.
   LCHARGE = .FALSE.

 POTCAR:    PAW_PBE C_h 06Feb2004                 
 POTCAR:    PAW_PBE H_h 06Feb2004                 
 POTCAR:    PAW_PBE O_h 06Feb2004                 
 -----------------------------------------------------------------------------
|                                                                             |
|               ----> ADVICE to this user running VASP <----                  |
|                                                                             |
|     You have switched on vdW-DFT.                                           |
|     This routine was written and supplied by Jiri Klimes. We recommend      |
|     that you carefully read and cite the following publications:            |
|       J. Klimes, D.R. Bowler, A. Michelides                                 |
|          J. Phys.: Cond Matt. 22 022201 (2010)                              |
|       J. Klimes, D.R. Bowler, A. Michelides                                 |
|          Phys. Rev. B. 83, 195131 (2011)                                    |
|     and references therein.                                                 |
|                                                                             |
 -----------------------------------------------------------------------------

 POTCAR:    PAW_PBE C_h 06Feb2004                 
   VRHFIN =C: s2p2                                                                                  
   LEXCH  = PE                                                                                      
   EATOM  =   147.1560 eV,   10.8157 Ry                                                             
                                                                                                    
   TITEL  = PAW_PBE C_h 06Feb2004                                                                   
   LULTRA =        F    use ultrasoft PP ?                                                          
   IUNSCR =        1    unscreen: 0-lin 1-nonlin 2-no                                               
   RPACOR =    0.800    partial core radius                                                         
   POMASS =   12.011; ZVAL   =    4.000    mass and valenz                                          
   RCORE  =    1.100    outmost cutoff radius                                                       
   RWIGS  =    1.630; RWIGS  =    0.863    wigner-seitz radius (au A)                               
   ENMAX  =  700.000; ENMIN  =  500.000 eV                                                          
   ICORE  =        2    local potential                                                             
   LCOR   =        T    correct aug charges                                                         
   LPAW   =        T    paw PP                                                                      
   EAUG   =  946.768                                                                                
   DEXC   =    0.000                                                                                
   RMAX   =    1.128    core radius for proj-oper                                                   
   RAUG   =    1.300    factor for augmentation sphere                                              
   RDEP   =    1.162    radius for radial grids                                                     
   RDEPT  =    1.088    core radius for aug-charge                                                  
                                                                                                    
   Atomic configuration                                                                             
    4 entries                                                                                       
     n  l   j            E        occ.                                                              
     1  0  0.50      -273.3789   2.0000                                                             
     2  0  0.50       -13.7508   2.0000                                                             
     2  1  0.50        -5.2854   2.0000                                                             
     3  2  1.50        -5.4423   0.0000                                                             
   Description                                                                                      
     l       E           TYP  RCUT    TYP  RCUT                                                     
     0    -13.7508458     23  1.100                                                                 
     0     -8.2022199     23  1.100                                                                 
     1     -5.2854383     23  1.100                                                                 
     1      1.1560700     23  1.100                                                                 
     2     -5.4423304      7  1.100                                                                 
  local pseudopotential read in
  partial core-charges read in
  partial kinetic energy density read in
  atomic valenz-charges read in
  non local Contribution for L=           0  read in
    real space projection operators read in
  non local Contribution for L=           0  read in
    real space projection operators read in
  non local Contribution for L=           1  read in
    real space projection operators read in
  non local Contribution for L=           1  read in
    real space projection operators read in
    PAW grid and wavefunctions read in

   number of l-projection  operators is LMAX  =           4
   number of lm-projection operators is LMMAX =           8

 POTCAR:    PAW_PBE H_h 06Feb2004                 
   VRHFIN =H: ultrasoft test                                                                        
   LEXCH  = PE                                                                                      
   EATOM  =    12.4884 eV,    0.9179 Ry                                                             
                                                                                                    
   TITEL  = PAW_PBE H_h 06Feb2004                                                                   
   LULTRA =        F    use ultrasoft PP ?                                                          
   IUNSCR =        0    unscreen: 0-lin 1-nonlin 2-no                                               
   RPACOR =    0.000    partial core radius                                                         
   POMASS =    1.000; ZVAL   =    1.000    mass and valenz                                          
   RCORE  =    0.800    outmost cutoff radius                                                       
   RWIGS  =    0.700; RWIGS  =    0.370    wigner-seitz radius (au A)                               
   ENMAX  =  700.000; ENMIN  =  350.000 eV                                                          
   RCLOC  =    0.701    cutoff for local pot                                                        
   LCOR   =        T    correct aug charges                                                         
   LPAW   =        T    paw PP                                                                      
   EAUG   = 1000.000                                                                                
   RMAX   =    0.819    core radius for proj-oper                                                   
   RAUG   =    1.000    factor for augmentation sphere                                              
   RDEP   =    0.817    radius for radial grids                                                     
   RDEPT  =    0.817    core radius for aug-charge                                                  
                                                                                                    
   Atomic configuration                                                                             
    2 entries                                                                                       
     n  l   j            E        occ.                                                              
     1  0  0.50        -6.4927   1.0000                                                             
     2  1  0.50        -3.4015   0.0000                                                             
   Description                                                                                      
     l       E           TYP  RCUT    TYP  RCUT                                                     
     0     -6.4927493     23  0.800                                                                 
     0      6.8029130     23  0.800                                                                 
     1     -6.8029130     23  0.800                                                                 
  local pseudopotential read in
  atomic valenz-charges read in
  non local Contribution for L=           0  read in
    real space projection operators read in
  non local Contribution for L=           0  read in
    real space projection operators read in
  non local Contribution for L=           1  read in
    real space projection operators read in
    PAW grid and wavefunctions read in

   number of l-projection  operators is LMAX  =           3
   number of lm-projection operators is LMMAX =           5

 POTCAR:    PAW_PBE O_h 06Feb2004                 
   VRHFIN =O: s2p4                                                                                  
   LEXCH  = PE                                                                                      
   EATOM  =   432.3788 eV,   31.7789 Ry                                                             
                                                                                                    
   TITEL  = PAW_PBE O_h 06Feb2004                                                                   
   LULTRA =        F    use ultrasoft PP ?                                                          
   IUNSCR =        1    unscreen: 0-lin 1-nonlin 2-no                                               
   RPACOR =    0.800    partial core radius                                                         
   POMASS =   16.000; ZVAL   =    6.000    mass and valenz                                          
   RCORE  =    1.100    outmost cutoff radius                                                       
   RWIGS  =    1.400; RWIGS  =    0.741    wigner-seitz radius (au A)                               
   ENMAX  =  700.000; ENMIN  =  500.000 eV                                                          
   ICORE  =        2    local potential                                                             
   LCOR   =        T    correct aug charges                                                         
   LPAW   =        T    paw PP                                                                      
   EAUG   =  888.804                                                                                
   DEXC   =    0.000                                                                                
   RMAX   =    1.128    core radius for proj-oper                                                   
   RAUG   =    1.300    factor for augmentation sphere                                              
   RDEP   =    1.125    radius for radial grids                                                     
   RDEPT  =    1.088    core radius for aug-charge                                                  
                                                                                                    
   Atomic configuration                                                                             
    4 entries                                                                                       
     n  l   j            E        occ.                                                              
     1  0  0.50      -514.6923   2.0000                                                             
     2  0  0.50       -23.9615   2.0000                                                             
     2  1  0.50        -9.0305   4.0000                                                             
     3  2  1.50        -9.5241   0.0000                                                             
   Description                                                                                      
     l       E           TYP  RCUT    TYP  RCUT                                                     
     0    -23.9615319     23  1.100                                                                 
     0    -25.3221145     23  1.100                                                                 
     1     -9.0304911     23  1.100                                                                 
     1     -5.4802209     23  1.100                                                                 
     2     -9.5240782      7  1.100                                                                 
  local pseudopotential read in
  partial core-charges read in
  partial kinetic energy density read in
  atomic valenz-charges read in
  non local Contribution for L=           0  read in
    real space projection operators read in
  non local Contribution for L=           0  read in
    real space projection operators read in
  non local Contribution for L=           1  read in
    real space projection operators read in
  non local Contribution for L=           1  read in
    real space projection operators read in
    PAW grid and wavefunctions read in

   number of l-projection  operators is LMAX  =           4
   number of lm-projection operators is LMMAX =           8

 -----------------------------------------------------------------------------
|                                                                             |
|               ----> ADVICE to this user running VASP <----                  |
|                                                                             |
|     You have a (more or less) 'large supercell' and for larger cells it     |
|     might be more efficient to use real-space projection operators.         |
|     Therefore, try LREAL= Auto in the INCAR file.                           |
|     Mind: For very accurate calculation, you might also keep the            |
|     reciprocal projection scheme (i.e. LREAL=.FALSE.).                      |
|                                                                             |
 -----------------------------------------------------------------------------

 -----------------------------------------------------------------------------
|                                                                             |
|               ----> ADVICE to this user running VASP <----                  |
|                                                                             |
|     You enforced a specific xc type in the INCAR file but a different       |
|     type was found in the POTCAR file.                                      |
|     I HOPE YOU KNOW WHAT YOU ARE DOING!                                     |
|                                                                             |
 -----------------------------------------------------------------------------

  PAW_PBE C_h 06Feb2004                 :
 energy of atom  1       EATOM= -147.1560
 kinetic energy error for atom=    0.0031 (will be added to EATOM!!)
  PAW_PBE H_h 06Feb2004                 :
 energy of atom  2       EATOM=  -12.4884
 kinetic energy error for atom=    0.0006 (will be added to EATOM!!)
  PAW_PBE O_h 06Feb2004                 :
 energy of atom  3       EATOM= -432.3788
 kinetic energy error for atom=    0.0171 (will be added to EATOM!!)


 POSCAR:  C  H  O
  positions in cartesian coordinates
  No initial velocities read in
 exchange correlation table for  LEXCH =       40
   RHO(1)=    0.500       N(1)  =     2000
   RHO(2)=  100.500       N(2)  =     4000

 VTST: version 4.1, (05/19/21)

 CHAIN: initializing optimizer
 
 OPT: Using VASP Dynamics algorithm
 CHAIN: Read ICHAIN            0

 POSCAR:  C  H  O
  positions in cartesian coordinates
  No initial velocities read in



--------------------------------------------------------------------------------------------------------


 ion  position               nearest neighbor table
   1  0.057  0.055  0.915-  17 1.22  18 1.31   2 1.55
   2  0.943  0.945  0.085-  19 1.22  20 1.31   1 1.55
   3  0.443  0.055  0.415-  21 1.22  27 1.31   6 1.55
   4  0.557  0.445  0.915-  22 1.22  28 1.31   7 1.55
   5  0.943  0.445  0.415-  23 1.22  29 1.31   8 1.55
   6  0.557  0.945  0.585-  24 1.22  30 1.31   3 1.55
   7  0.443  0.555  0.085-  25 1.22  31 1.31   4 1.55
   8  0.057  0.555  0.585-  26 1.22  32 1.31   5 1.55
   9  0.096  0.296  0.844-  18 1.01
  10  0.904  0.704  0.156-  20 1.01
  11  0.404  0.296  0.344-  27 1.01
  12  0.596  0.204  0.844-  28 1.01
  13  0.904  0.204  0.344-  29 1.01
  14  0.596  0.704  0.656-  30 1.01
  15  0.404  0.796  0.156-  31 1.01
  16  0.096  0.796  0.656-  32 1.01
  17  0.157  0.993  0.765-   1 1.22
  18  0.031  0.218  0.955-   9 1.01   1 1.31
  19  0.843  0.007  0.235-   2 1.22
  20  0.969  0.782  0.045-  10 1.01   2 1.31
  21  0.343  0.993  0.265-   3 1.22
  22  0.657  0.507  0.765-   4 1.22
  23  0.843  0.507  0.265-   5 1.22
  24  0.657  0.007  0.735-   6 1.22
  25  0.343  0.493  0.235-   7 1.22
  26  0.157  0.493  0.735-   8 1.22
  27  0.469  0.218  0.455-  11 1.01   3 1.31
  28  0.531  0.282  0.955-  12 1.01   4 1.31
  29  0.969  0.282  0.455-  13 1.01   5 1.31
  30  0.531  0.782  0.545-  14 1.01   6 1.31
  31  0.469  0.718  0.045-  15 1.01   7 1.31
  32  0.031  0.718  0.545-  16 1.01   8 1.31

  LATTYP: Found a simple orthorhombic cell.
 ALAT       =     6.0860000000
 B/A-ratio  =     1.0759119290
 C/A-ratio  =     1.2888596779
  
  Lattice vectors:
  
 A1 = (   0.0000000000,   0.0000000000,   6.0860000000)
 A2 = (   6.5480000000,   0.0000000000,   0.0000000000)
 A3 = (   0.0000000000,   7.8440000000,   0.0000000000)


Analysis of symmetry for initial positions (statically):
=====================================================================
 Subroutine PRICEL returns:
 Original cell was already a primitive cell.
 

 Routine SETGRP: Setting up the symmetry group for a 
 simple orthorhombic supercell.


 Subroutine GETGRP returns: Found  8 space group operations
 (whereof  2 operations were pure point group operations)
 out of a pool of  8 trial point group operations.


The static configuration has the point symmetry S_2 .
 The point group associated with its full space group is D_2h.


Analysis of symmetry for dynamics (positions and initial velocities):
=====================================================================
 Subroutine PRICEL returns:
 Original cell was already a primitive cell.
 

 Routine SETGRP: Setting up the symmetry group for a 
 simple orthorhombic supercell.


 Subroutine GETGRP returns: Found  8 space group operations
 (whereof  2 operations were pure point group operations)
 out of a pool of  8 trial point group operations.


The dynamic configuration has the point symmetry S_2 .
 The point group associated with its full space group is D_2h.


 Subroutine INISYM returns: Found  8 space group operations
 (whereof  2 operations are pure point group operations),
 and found     1 'primitive' translations


----------------------------------------------------------------------------------------

                                     Primitive cell                                     

  volume of cell :     312.5922

  direct lattice vectors                    reciprocal lattice vectors
     6.548000000  0.000000000  0.000000000     0.152718387  0.000000000  0.000000000
     0.000000000  7.844000000  0.000000000     0.000000000  0.127485977  0.000000000
     0.000000000  0.000000000  6.086000000     0.000000000  0.000000000  0.164311535

  length of vectors
     6.548000000  7.844000000  6.086000000     0.152718387  0.127485977  0.164311535

  position of ions in fractional coordinates (direct lattice)
     0.057396641  0.055115644  0.914745396
     0.942603359  0.944884356  0.085254604
     0.442603369  0.055115663  0.414745392
     0.557396653  0.444884317  0.914745444
     0.942603382  0.444884330  0.414745407
     0.557396631  0.944884337  0.585254608
     0.442603347  0.555115683  0.085254556
     0.057396618  0.555115670  0.585254593
     0.096234730  0.295567034  0.843783748
     0.903765270  0.704432966  0.156216252
     0.403765238  0.295567045  0.343783845
     0.596234803  0.204432954  0.843783826
     0.903765242  0.204432941  0.343783858
     0.596234762  0.704432955  0.656216155
     0.403765197  0.795567046  0.156216174
     0.096234758  0.795567059  0.656216142
     0.157124606  0.992857540  0.764594901
     0.030544588  0.218035634  0.955022064
     0.842875394  0.007142460  0.235405099
     0.969455412  0.781964365  0.044977936
     0.342875508  0.992857631  0.264594851
     0.657124617  0.507142400  0.764594939
     0.842875492  0.507142430  0.264594884
     0.657124492  0.007142369  0.735405149
     0.342875384  0.492857600  0.235405061
     0.157124508  0.492857570  0.735405116
     0.469455363  0.218035684  0.455022222
     0.530544586  0.281964313  0.955022171
     0.969455403  0.281964334  0.455022213
     0.530544637  0.781964316  0.544977778
     0.469455414  0.718035687  0.044977829
     0.030544597  0.718035666  0.544977787

  ion indices of the primitive-cell ions
   primitive index   ion index
                 1           1
                 2           2
                 3           3
                 4           4
                 5           5
                 6           6
                 7           7
                 8           8
                 9           9
                10          10
                11          11
                12          12
                13          13
                14          14
                15          15
                16          16
                17          17
                18          18
                19          19
                20          20
                21          21
                22          22
                23          23
                24          24
                25          25
                26          26
                27          27
                28          28
                29          29
                30          30
                31          31
                32          32

----------------------------------------------------------------------------------------



 KPOINTS: auto                                    

Automatic generation of k-mesh.
 Grid dimensions read from file:
 generate k-points for:    4    3    4

 Generating k-lattice:

  Cartesian coordinates                     Fractional coordinates (reciprocal lattice)
     0.038179597  0.000000000  0.000000000     0.250000000  0.000000000  0.000000000
     0.000000000  0.042495326  0.000000000     0.000000000  0.333333333  0.000000000
     0.000000000  0.000000000  0.041077884     0.000000000  0.000000000  0.250000000

  Length of vectors
     0.038179597  0.042495326  0.041077884

  Shift w.r.t. Gamma in fractional coordinates (k-lattice)
     0.000000000  0.000000000  0.000000000

 
 Subroutine IBZKPT returns following result:
 ===========================================
 
 Found     18 irreducible k-points:
 
 Following reciprocal coordinates:
            Coordinates               Weight
  0.000000  0.000000  0.000000      1.000000
  0.250000  0.000000  0.000000      2.000000
  0.500000  0.000000  0.000000      1.000000
  0.000000  0.333333  0.000000      2.000000
  0.250000  0.333333  0.000000      4.000000
  0.500000  0.333333  0.000000      2.000000
  0.000000  0.000000  0.250000      2.000000
  0.250000  0.000000  0.250000      4.000000
  0.500000  0.000000  0.250000      2.000000
  0.000000  0.333333  0.250000      4.000000
  0.250000  0.333333  0.250000      8.000000
  0.500000  0.333333  0.250000      4.000000
  0.000000  0.000000  0.500000      1.000000
  0.250000  0.000000  0.500000      2.000000
  0.500000  0.000000  0.500000      1.000000
  0.000000  0.333333  0.500000      2.000000
  0.250000  0.333333  0.500000      4.000000
  0.500000  0.333333  0.500000      2.000000
 
 Following cartesian coordinates:
            Coordinates               Weight
  0.000000  0.000000  0.000000      1.000000
  0.038180  0.000000  0.000000      2.000000
  0.076359  0.000000  0.000000      1.000000
  0.000000  0.042495  0.000000      2.000000
  0.038180  0.042495  0.000000      4.000000
  0.076359  0.042495  0.000000      2.000000
  0.000000  0.000000  0.041078      2.000000
  0.038180  0.000000  0.041078      4.000000
  0.076359  0.000000  0.041078      2.000000
  0.000000  0.042495  0.041078      4.000000
  0.038180  0.042495  0.041078      8.000000
  0.076359  0.042495  0.041078      4.000000
  0.000000  0.000000  0.082156      1.000000
  0.038180  0.000000  0.082156      2.000000
  0.076359  0.000000  0.082156      1.000000
  0.000000  0.042495  0.082156      2.000000
  0.038180  0.042495  0.082156      4.000000
  0.076359  0.042495  0.082156      2.000000
 


--------------------------------------------------------------------------------------------------------




 Dimension of arrays:
   k-points           NKPTS =     18   k-points in BZ     NKDIM =     18   number of bands    NBANDS=     88
   number of dos      NEDOS =    301   number of ions     NIONS =     32
   non local maximal  LDIM  =      4   non local SUM 2l+1 LMDIM =      8
   total plane-waves  NPLWV = 376320
   max r-space proj   IRMAX =      1   max aug-charges    IRDMAX=   8978
   dimension x,y,z NGX =    70 NGY =   84 NGZ =   64
   dimension x,y,z NGXF=   140 NGYF=  168 NGZF=  128
   support grid    NGXF=   140 NGYF=  168 NGZF=  128
   ions per type =               8   8  16
   NGX,Y,Z   is equivalent  to a cutoff of  17.77, 17.80, 17.48 a.u.
   NGXF,Y,Z  is equivalent  to a cutoff of  35.54, 35.61, 34.96 a.u.

 SYSTEM =  unknown system                          
 POSCAR =   C  H  O                                

 Startparameter for this run:
   NWRITE =      2    write-flag & timer
   PREC   = accura    normal or accurate (medium, high low for compatibility)
   ISTART =      0    job   : 0-new  1-cont  2-samecut
   ICHARG =      2    charge: 1-file 2-atom 10-const
   ISPIN  =      1    spin polarized calculation?
   LNONCOLLINEAR =      F non collinear calculations
   LSORBIT =      F    spin-orbit coupling
   INIWAV =      1    electr: 0-lowe 1-rand  2-diag
   LASPH  =      T    aspherical Exc in radial PAW
 Electronic Relaxation 1
   ENCUT  = 1000.0 eV  73.50 Ry    8.57 a.u.  16.88 20.23 15.69*2*pi/ulx,y,z
   ENINI  = 1000.0     initial cutoff
   ENAUG  = 1000.0 eV  augmentation charge cutoff
   NELM   =     60;   NELMIN=  2; NELMDL= -5     # of ELM steps 
   EDIFF  = 0.1E-06   stopping-criterion for ELM
   LREAL  =      F    real-space projection
   NLSPLINE    = F    spline interpolate recip. space projectors
   LCOMPAT=      F    compatible to vasp.4.4
   GGA_COMPAT  = T    GGA compatible to vasp.4.4-vasp.4.6
   LMAXPAW     = -100 max onsite density
   LMAXMIX     =    2 max onsite mixed and CHGCAR
   VOSKOWN=      0    Vosko Wilk Nusair interpolation
   ROPT   =    0.00000   0.00000   0.00000
 Ionic relaxation
   EDIFFG = 0.1E-05   stopping-criterion for IOM
   NSW    =      0    number of steps for IOM
   NBLOCK =      1;   KBLOCK =      1    inner block; outer block 
   IBRION =     -1    ionic relax: 0-MD 1-quasi-New 2-CG
   NFREE  =      0    steps in history (QN), initial steepest desc. (CG)
   ISIF   =      0    stress and relaxation
   IWAVPR =     10    prediction:  0-non 1-charg 2-wave 3-comb
   ISYM   =      2    0-nonsym 1-usesym 2-fastsym
   LCORR  =      T    Harris-Foulkes like correction to forces

   POTIM  = 0.5000    time-step for ionic-motion
   TEIN   =    0.0    initial temperature
   TEBEG  =    0.0;   TEEND  =   0.0 temperature during run
   SMASS  =  -3.00    Nose mass-parameter (am)
   estimated Nose-frequenzy (Omega)   =  0.10E-29 period in steps = 0.13E+47 mass=  -0.980E-27a.u.
   SCALEE = 1.0000    scale energy and forces
   NPACO  =    256;   APACO  = 10.0  distance and # of slots for P.C.
   PSTRESS=    0.0 pullay stress

  Mass of Ions in am
   POMASS =  12.01  1.00 16.00
  Ionic Valenz
   ZVAL   =   4.00  1.00  6.00
  Atomic Wigner-Seitz radii
   RWIGS  =  -1.00 -1.00 -1.00
  virtual crystal weights 
   VCA    =   1.00  1.00  1.00
   NELECT =     136.0000    total number of electrons
   NUPDOWN=      -1.0000    fix difference up-down

 DOS related values:
   EMIN   =  10.00;   EMAX   =-10.00  energy-range for DOS
   EFERMI =   0.00;   METHOD = LEGACY      
   ISMEAR =     0;   SIGMA  =   0.01  broadening in eV -4-tet -1-fermi 0-gaus

 Electronic relaxation 2 (details)
   IALGO  =     58    algorithm
   LDIAG  =      T    sub-space diagonalisation (order eigenvalues)
   LSUBROT=      F    optimize rotation matrix (better conditioning)
   TURBO    =      0    0=normal 1=particle mesh
   IRESTART =      0    0=no restart 2=restart with 2 vectors
   NREBOOT  =      0    no. of reboots
   NMIN     =      0    reboot dimension
   EREF     =   0.00    reference energy to select bands
   IMIX   =      4    mixing-type and parameters
     AMIX     =   0.40;   BMIX     =  1.00
     AMIX_MAG =   1.60;   BMIX_MAG =  1.00
     AMIN     =   0.10
     WC   =   100.;   INIMIX=   1;  MIXPRE=   1;  MAXMIX= -45

 Intra band minimization:
   WEIMIN = 0.0000     energy-eigenvalue tresh-hold
   EBREAK =  0.28E-09  absolut break condition
   DEPER  =   0.30     relativ break condition  

   TIME   =   0.40     timestep for ELM

  volume/ion in A,a.u.               =       9.77        65.92
  Fermi-wavevector in a.u.,A,eV,Ry     =   1.240495  2.344196 20.937029  1.538828
  Thomas-Fermi vector in A             =   2.374933

 Write flags
   LWAVE        =      F    write WAVECAR
   LDOWNSAMPLE  =      F    k-point downsampling of WAVECAR
   LCHARG       =      T    write CHGCAR
   LVTOT        =      F    write LOCPOT, total local potential
   LVHAR        =      F    write LOCPOT, Hartree potential only
   LELF         =      F    write electronic localiz. function (ELF)
   LORBIT       =      0    0 simple, 1 ext, 2 COOP (PROOUT), +10 PAW based schemes


 Dipole corrections
   LMONO  =      F    monopole corrections only (constant potential shift)
   LDIPOL =      F    correct potential (dipole corrections)
   IDIPOL =      0    1-x, 2-y, 3-z, 4-all directions 
   EPSILON=  1.0000000 bulk dielectric constant

 Exchange correlation treatment:
   GGA     =    RE    GGA type
   LEXCH   =    40    internal setting for exchange type
   LIBXC   =     F    Libxc                    
   VOSKOWN =     0    Vosko Wilk Nusair interpolation
   LHFCALC =     F    Hartree Fock is set to
   LHFONE  =     F    Hartree Fock one center treatment
   AEXX    =    0.0000 exact exchange contribution

 vdW DFT:
   LUSE_VDW   =     T    switch on vdW DFT
   IVDW_NL    =     1    kernel type
   LSPIN_VDW  =     F    use spin-polarized vdW DFT
   Zab_VDW    =-.8491    correlation parameter
   PARAM1     =0.1234
   PARAM2     =1.0000
   PARAM3     =0.0000
   -- rVV10 --
   BPARAM     = 6.3000
   CPARAM     = 0.0093

 Linear response parameters
   LEPSILON=     F    determine dielectric tensor
   LRPA    =     F    only Hartree local field effects (RPA)
   LNABLA  =     F    use nabla operator in PAW spheres
   LVEL    =     F    velocity operator in full k-point grid
   CSHIFT  =0.1000    complex shift for real part using Kramers Kronig
   OMEGAMAX=  -1.0    maximum frequency
   DEG_THRESHOLD= 0.2000000E-02 threshold for treating states as degnerate
   RTIME   =   -0.100 relaxation time in fs
  (WPLASMAI=    0.000 imaginary part of plasma frequency in eV, 0.658/RTIME)
   DFIELD  = 0.0000000 0.0000000 0.0000000 field for delta impulse in time

  Optional k-point grid parameters
   LKPOINTS_OPT  =     F    use optional k-point grid
   KPOINTS_OPT_MODE=     1    mode for optional k-point grid

 Orbital magnetization related:
   ORBITALMAG=     F  switch on orbital magnetization
   LCHIMAG   =     F  perturbation theory with respect to B field
   DQ        =  0.001000  dq finite difference perturbation B field
   LLRAUG    =     F  two centre corrections for induced B field
   LBONE     =     F  B-component reconstruction in AE one-centre
   LVGVCALC  =     T  calculate vGv susceptibility
   LVGVAPPL  =     F  apply vGv susceptibility instead of pGv for G=0

 Random number generation:
   RANDOM_GENERATOR = DEFAULT
   PCG_SEED         = not used


--------------------------------------------------------------------------------------------------------


 Static calculation
 charge density and potential will be updated during run
 non-spin polarized calculation
 Conjugate gradient for all bands (Freysoldt, et al. PRB 79, 241103 (2009))
 preconditioned conjugated gradient                                        
 perform sub-space diagonalisation
    before iterative eigenvector-optimisation
 modified Broyden-mixing scheme, WC =      100.0
 initial mixing is a Kerker type mixing with AMIX =  0.4000 and BMIX =      1.0000
 Hartree-type preconditioning will be used
 using additional bands           20
 reciprocal scheme for non local part
 use partial core corrections
 no Harris-corrections to forces 
 use gradient corrections 
 use of overlap-Matrix (Vanderbilt PP)
 Gauss-broadening in eV      SIGMA  =   0.01


--------------------------------------------------------------------------------------------------------


  energy-cutoff  :     1000.00
  volume of cell :      312.59
      direct lattice vectors                 reciprocal lattice vectors
     6.548000000  0.000000000  0.000000000     0.152718387  0.000000000  0.000000000
     0.000000000  7.844000000  0.000000000     0.000000000  0.127485977  0.000000000
     0.000000000  0.000000000  6.086000000     0.000000000  0.000000000  0.164311535

  length of vectors
     6.548000000  7.844000000  6.086000000     0.152718387  0.127485977  0.164311535



 k-points in units of 2pi/SCALE and weight: auto                                    
   0.00000000  0.00000000  0.00000000       0.021
   0.03817960  0.00000000  0.00000000       0.042
   0.07635919  0.00000000  0.00000000       0.021
   0.00000000  0.04249533  0.00000000       0.042
   0.03817960  0.04249533  0.00000000       0.083
   0.07635919  0.04249533  0.00000000       0.042
   0.00000000  0.00000000  0.04107788       0.042
   0.03817960  0.00000000  0.04107788       0.083
   0.07635919  0.00000000  0.04107788       0.042
   0.00000000  0.04249533  0.04107788       0.083
   0.03817960  0.04249533  0.04107788       0.167
   0.07635919  0.04249533  0.04107788       0.083
   0.00000000  0.00000000  0.08215577       0.021
   0.03817960  0.00000000  0.08215577       0.042
   0.07635919  0.00000000  0.08215577       0.021
   0.00000000  0.04249533  0.08215577       0.042
   0.03817960  0.04249533  0.08215577       0.083
   0.07635919  0.04249533  0.08215577       0.042

 k-points in reciprocal lattice and weights: auto                                    
   0.00000000  0.00000000  0.00000000       0.021
   0.25000000  0.00000000  0.00000000       0.042
   0.50000000  0.00000000  0.00000000       0.021
   0.00000000  0.33333333  0.00000000       0.042
   0.25000000  0.33333333  0.00000000       0.083
   0.50000000  0.33333333  0.00000000       0.042
   0.00000000  0.00000000  0.25000000       0.042
   0.25000000  0.00000000  0.25000000       0.083
   0.50000000  0.00000000  0.25000000       0.042
   0.00000000  0.33333333  0.25000000       0.083
   0.25000000  0.33333333  0.25000000       0.167
   0.50000000  0.33333333  0.25000000       0.083
   0.00000000  0.00000000  0.50000000       0.021
   0.25000000  0.00000000  0.50000000       0.042
   0.50000000  0.00000000  0.50000000       0.021
   0.00000000  0.33333333  0.50000000       0.042
   0.25000000  0.33333333  0.50000000       0.083
   0.50000000  0.33333333  0.50000000       0.042

 position of ions in fractional coordinates (direct lattice) 
   0.05739664  0.05511564  0.91474540
   0.94260336  0.94488436  0.08525460
   0.44260337  0.05511566  0.41474539
   0.55739665  0.44488432  0.91474544
   0.94260338  0.44488433  0.41474541
   0.55739663  0.94488434  0.58525461
   0.44260335  0.55511568  0.08525456
   0.05739662  0.55511567  0.58525459
   0.09623473  0.29556703  0.84378375
   0.90376527  0.70443297  0.15621625
   0.40376524  0.29556705  0.34378384
   0.59623480  0.20443295  0.84378383
   0.90376524  0.20443294  0.34378386
   0.59623476  0.70443295  0.65621616
   0.40376520  0.79556705  0.15621617
   0.09623476  0.79556706  0.65621614
   0.15712461  0.99285754  0.76459490
   0.03054459  0.21803563  0.95502206
   0.84287539  0.00714246  0.23540510
   0.96945541  0.78196437  0.04497794
   0.34287551  0.99285763  0.26459485
   0.65712462  0.50714240  0.76459494
   0.84287549  0.50714243  0.26459488
   0.65712449  0.00714237  0.73540515
   0.34287538  0.49285760  0.23540506
   0.15712451  0.49285757  0.73540512
   0.46945536  0.21803568  0.45502222
   0.53054459  0.28196431  0.95502217
   0.96945540  0.28196433  0.45502221
   0.53054464  0.78196432  0.54497778
   0.46945541  0.71803569  0.04497783
   0.03054460  0.71803567  0.54497779

 position of ions in cartesian coordinates  (Angst):
   0.37583320  0.43232711  5.56714048
   6.17216680  7.41167289  0.51885952
   2.89816686  0.43232726  2.52414046
   3.64983329  3.48967259  5.56714077
   6.17216695  3.48967268  2.52414055
   3.64983314  7.41167274  3.56185954
   2.89816671  4.35432741  0.51885923
   0.37583305  4.35432732  3.56185945
   0.63014501  2.31842781  5.13526789
   5.91785499  5.52557219  0.95073211
   2.64385478  2.31842790  2.09226848
   3.90414549  1.60357209  5.13526836
   5.91785480  1.60357199  2.09226856
   3.90414522  5.52557210  3.99373152
   2.64385451  6.24042791  0.95073164
   0.63014520  6.24042801  3.99373144
   1.02885192  7.78797454  4.65332457
   0.20000596  1.71027152  5.81226428
   5.51914808  0.05602546  1.43267543
   6.34799404  6.13372848  0.27373572
   2.24514883  7.78797525  1.61032426
   4.30285199  3.97802499  4.65332480
   5.51914872  3.97802522  1.61032446
   4.30285117  0.05602475  4.47567574
   2.24514801  3.86597501  1.43267520
   1.02885128  3.86597478  4.47567554
   3.07399372  1.71027191  2.76926524
   3.47400595  2.21172807  5.81226494
   6.34799398  2.21172823  2.76926519
   3.47400628  6.13372809  3.31673476
   3.07399405  5.63227193  0.27373506
   0.20000602  5.63227177  3.31673481



--------------------------------------------------------------------------------------------------------


 k-point   1 :   0.0000 0.0000 0.0000  plane waves:   22451
 k-point   2 :   0.2500 0.0000 0.0000  plane waves:   22472
 k-point   3 :   0.5000 0.0000 0.0000  plane waves:   22518
 k-point   4 :   0.0000 0.3333 0.0000  plane waves:   22402
 k-point   5 :   0.2500 0.3333 0.0000  plane waves:   22470
 k-point   6 :   0.5000 0.3333 0.0000  plane waves:   22446
 k-point   7 :   0.0000 0.0000 0.2500  plane waves:   22453
 k-point   8 :   0.2500 0.0000 0.2500  plane waves:   22440
 k-point   9 :   0.5000 0.0000 0.2500  plane waves:   22450
 k-point  10 :   0.0000 0.3333 0.2500  plane waves:   22428
 k-point  11 :   0.2500 0.3333 0.2500  plane waves:   22438
 k-point  12 :   0.5000 0.3333 0.2500  plane waves:   22476
 k-point  13 :   0.0000 0.0000 0.5000  plane waves:   22396
 k-point  14 :   0.2500 0.0000 0.5000  plane waves:   22434
 k-point  15 :   0.5000 0.0000 0.5000  plane waves:   22432
 k-point  16 :   0.0000 0.3333 0.5000  plane waves:   22476
 k-point  17 :   0.2500 0.3333 0.5000  plane waves:   22452
 k-point  18 :   0.5000 0.3333 0.5000  plane waves:   22440

 maximum and minimum number of plane-waves per node :       370      329

 maximum number of plane-waves:     22518
 maximum index in each direction: 
   IXMAX=   16   IYMAX=   20   IZMAX=   15
   IXMIN=  -17   IYMIN=  -20   IZMIN=  -16


 parallel 3D FFT for wavefunctions:
    minimum data exchange during FFTs selected (reduces bandwidth)
 parallel 3D FFT for charge:
    minimum data exchange during FFTs selected (reduces bandwidth)


 total amount of memory used by VASP MPI-rank0    41490. kBytes
=======================================================================

   base      :      30000. kBytes
   nonl-proj :       1460. kBytes
   fftplans  :       1056. kBytes
   grid      :       1825. kBytes
   one-center:          3. kBytes
   wavefun   :       7146. kBytes

     INWAV:  cpu time      0.0002: real time      0.0004
 Broyden mixing: mesh for mixing (old mesh)
   NGX = 33   NGY = 41   NGZ = 31
  (NGX  =140   NGY  =168   NGZ  =128)
  gives a total of  41943 points

 initial charge density was supplied:
 charge density of overlapping atoms calculated
 number of electron     136.0000000 magnetization 
 keeping initial charge density in first step


--------------------------------------------------------------------------------------------------------


 Maximum index for augmentation-charges          448 (set IRDMAX)


--------------------------------------------------------------------------------------------------------


 First call to EWALD:  gamma=   0.261
 Maximum number of real-space cells 3x 2x 3
 Maximum number of reciprocal cells 3x 3x 3

    FEWALD:  cpu time      0.0021: real time      0.0021


--------------------------------------- Ionic step        1  -------------------------------------------




--------------------------------------- Iteration      1(   1)  ---------------------------------------


vdW kernel read from vdw_kernel.bindat
  0.0000  0.2424  0.5071  0.7962  1.1119  1.4567  1.8333  2.2446  2.6937  3.1842
  3.7199  4.3049  4.9438  5.6415  6.4036  7.2358  8.1446  9.1372 10.2212 11.4050
 12.6979 14.1099 15.6519 17.3360 19.1751 21.1837 23.3773 25.7729 28.3892 31.2465
 34.3669 37.7748 41.4965 45.5611 50.0000

    POTLOK:  cpu time      1.2352: real time      1.2629
    SETDIJ:  cpu time      0.0708: real time      0.0708
    TRIAL :  cpu time      1.6960: real time      1.6990
    CORREC:  cpu time      0.0018: real time      0.0019
    --------------------------------------------
      LOOP:  cpu time      3.0068: real time      3.0376

 eigenvalue-minimisations  :  3168
 total energy-change (2. order) : 0.1529033E+04  (-0.1103645E+05)
 number of electron     136.0000000 magnetization 
 augmentation part      136.0000000 magnetization 

 Free energy of the ion-electron system (eV)
  ---------------------------------------------------
  alpha Z        PSCENC =       164.42561539
  Ewald energy   TEWEN  =     -4769.51426773
  -Hartree energ DENC   =     -2893.12250234
  -exchange      EXHF   =         0.00000000
  -V(xc)+E(xc)   XCENC  =       479.69914523
  PAW double counting   =      6496.35612055    -6466.70425378
  entropy T*S    EENTRO =        -0.00089959
  eigenvalues    EBANDS =       236.68453585
  atomic energy  EATOM  =      8281.20987292
  ---------------------------------------------------
  free energy    TOTEN  =      1529.03336650 eV

  energy without entropy =     1529.03426609  energy(sigma->0) =     1529.03381630


--------------------------------------------------------------------------------------------------------




--------------------------------------- Iteration      1(   2)  ---------------------------------------


    TRIAL :  cpu time      2.0350: real time      2.0357
    CORREC:  cpu time      0.0005: real time      0.0005
    --------------------------------------------
      LOOP:  cpu time      2.0499: real time      2.0648

 eigenvalue-minimisations  :  4288
 total energy-change (2. order) :-0.1490884E+04  (-0.1441659E+04)
 number of electron     136.0000000 magnetization 
 augmentation part      136.0000000 magnetization 

 Free energy of the ion-electron system (eV)
  ---------------------------------------------------
  alpha Z        PSCENC =       164.42561539
  Ewald energy   TEWEN  =     -4769.51426773
  -Hartree energ DENC   =     -2893.12250234
  -exchange      EXHF   =         0.00000000
  -V(xc)+E(xc)   XCENC  =       479.69914523
  PAW double counting   =      6496.35612055    -6466.70425378
  entropy T*S    EENTRO =        -0.00000000
  eigenvalues    EBANDS =     -1254.20018358
  atomic energy  EATOM  =      8281.20987292
  ---------------------------------------------------
  free energy    TOTEN  =        38.14954666 eV

  energy without entropy =       38.14954666  energy(sigma->0) =       38.14954666


--------------------------------------------------------------------------------------------------------




--------------------------------------- Iteration      1(   3)  ---------------------------------------


    TRIAL :  cpu time      1.8531: real time      1.8539
    CORREC:  cpu time      0.0005: real time      0.0005
    --------------------------------------------
      LOOP:  cpu time      1.8667: real time      1.8841

 eigenvalue-minimisations  :  3728
 total energy-change (2. order) :-0.2133652E+03  (-0.2107519E+03)
 number of electron     136.0000000 magnetization 
 augmentation part      136.0000000 magnetization 

 Free energy of the ion-electron system (eV)
  ---------------------------------------------------
  alpha Z        PSCENC =       164.42561539
  Ewald energy   TEWEN  =     -4769.51426773
  -Hartree energ DENC   =     -2893.12250234
  -exchange      EXHF   =         0.00000000
  -V(xc)+E(xc)   XCENC  =       479.69914523
  PAW double counting   =      6496.35612055    -6466.70425378
  entropy T*S    EENTRO =        -0.00000000
  eigenvalues    EBANDS =     -1467.56537375
  atomic energy  EATOM  =      8281.20987292
  ---------------------------------------------------
  free energy    TOTEN  =      -175.21564351 eV

  energy without entropy =     -175.21564351  energy(sigma->0) =     -175.21564351


--------------------------------------------------------------------------------------------------------




--------------------------------------- Iteration      1(   4)  ---------------------------------------


    TRIAL :  cpu time      1.9929: real time      1.9941
    CORREC:  cpu time      0.0005: real time      0.0005
    --------------------------------------------
      LOOP:  cpu time      2.0089: real time      2.0244

 eigenvalue-minimisations  :  4064
 total energy-change (2. order) :-0.7389454E+01  (-0.7352481E+01)
 number of electron     136.0000000 magnetization 
 augmentation part      136.0000000 magnetization 

 Free energy of the ion-electron system (eV)
  ---------------------------------------------------
  alpha Z        PSCENC =       164.42561539
  Ewald energy   TEWEN  =     -4769.51426773
  -Hartree energ DENC   =     -2893.12250234
  -exchange      EXHF   =         0.00000000
  -V(xc)+E(xc)   XCENC  =       479.69914523
  PAW double counting   =      6496.35612055    -6466.70425378
  entropy T*S    EENTRO =        -0.00000000
  eigenvalues    EBANDS =     -1474.95482812
  atomic energy  EATOM  =      8281.20987292
  ---------------------------------------------------
  free energy    TOTEN  =      -182.60509788 eV

  energy without entropy =     -182.60509788  energy(sigma->0) =     -182.60509788


--------------------------------------------------------------------------------------------------------




--------------------------------------- Iteration      1(   5)  ---------------------------------------


    TRIAL :  cpu time      1.8729: real time      1.8739
    CORREC:  cpu time      0.0003: real time      0.0003
    CHARGE:  cpu time      0.1537: real time      0.1544
    --------------------------------------------
      LOOP:  cpu time      2.0418: real time      2.0584

 eigenvalue-minimisations  :  3888
 total energy-change (2. order) :-0.2168681E+00  (-0.2166819E+00)
 number of electron     135.9999997 magnetization 
 augmentation part        1.2669588 magnetization 

 Free energy of the ion-electron system (eV)
  ---------------------------------------------------
  alpha Z        PSCENC =       164.42561539
  Ewald energy   TEWEN  =     -4769.51426773
  -Hartree energ DENC   =     -2893.12250234
  -exchange      EXHF   =         0.00000000
  -V(xc)+E(xc)   XCENC  =       479.69914523
  PAW double counting   =      6496.35612055    -6466.70425378
  entropy T*S    EENTRO =        -0.00000000
  eigenvalues    EBANDS =     -1475.17169620
  atomic energy  EATOM  =      8281.20987292
  ---------------------------------------------------
  free energy    TOTEN  =      -182.82196596 eV

  energy without entropy =     -182.82196596  energy(sigma->0) =     -182.82196596


--------------------------------------------------------------------------------------------------------




--------------------------------------- Iteration      1(   6)  ---------------------------------------


    POTLOK:  cpu time      0.6050: real time      0.6055
    SETDIJ:  cpu time      0.0653: real time      0.0653
    TRIAL :  cpu time      1.0004: real time      1.0020
    CORREC:  cpu time      1.2617: real time      1.2626
    CHARGE:  cpu time      0.1257: real time      0.1257
    --------------------------------------------
      LOOP:  cpu time      3.0718: real time      3.0909

 eigenvalue-minimisations  :     0
 total energy-change (2. order) : 0.3898959E+02  (-0.2091374E+02)
 number of electron     135.9999998 magnetization 
 augmentation part        0.8765759 magnetization 

 Free energy of the ion-electron system (eV)
  ---------------------------------------------------
  alpha Z        PSCENC =       164.42561539
  Ewald energy   TEWEN  =     -4769.51426773
  -Hartree energ DENC   =     -3530.14049092
  -exchange      EXHF   =         0.00000000
  -V(xc)+E(xc)   XCENC  =       521.68915294
  PAW double counting   =     60536.58869403   -60517.84268425
  entropy T*S    EENTRO =        -0.00000000
  eigenvalues    EBANDS =      -830.24826364
  atomic energy  EATOM  =      8281.20987292
  ---------------------------------------------------
  free energy    TOTEN  =      -143.83237126 eV

  energy without entropy =     -143.83237126  energy(sigma->0) =     -143.83237126


--------------------------------------------------------------------------------------------------------




--------------------------------------- Iteration      1(   7)  ---------------------------------------


    POTLOK:  cpu time      0.5891: real time      0.5893
    SETDIJ:  cpu time      0.0655: real time      0.0655
    TRIAL :  cpu time      0.9617: real time      0.9619
    CORREC:  cpu time      1.2475: real time      1.2478
    CHARGE:  cpu time      0.1264: real time      0.1264
    --------------------------------------------
      LOOP:  cpu time      3.0206: real time      3.0216

 eigenvalue-minimisations  :     0
 total energy-change (2. order) :-0.2098129E+02  (-0.2209524E+01)
 number of electron     135.9999998 magnetization 
 augmentation part        0.7265019 magnetization 

 Free energy of the ion-electron system (eV)
  ---------------------------------------------------
  alpha Z        PSCENC =       164.42561539
  Ewald energy   TEWEN  =     -4769.51426773
  -Hartree energ DENC   =     -3185.60957936
  -exchange      EXHF   =         0.00000000
  -V(xc)+E(xc)   XCENC  =       499.53621824
  PAW double counting   =     76977.72067252   -76953.84155871
  entropy T*S    EENTRO =        -0.00000000
  eigenvalues    EBANDS =     -1178.74063149
  atomic energy  EATOM  =      8281.20987292
  ---------------------------------------------------
  free energy    TOTEN  =      -164.81365821 eV

  energy without entropy =     -164.81365821  energy(sigma->0) =     -164.81365821


--------------------------------------------------------------------------------------------------------




--------------------------------------- Iteration      1(   8)  ---------------------------------------


    POTLOK:  cpu time      0.5947: real time      0.5950
    SETDIJ:  cpu time      0.0656: real time      0.0656
    TRIAL :  cpu time      0.9608: real time      0.9612
    CORREC:  cpu time      1.2667: real time      1.2670
    CHARGE:  cpu time      0.1262: real time      0.1262
    --------------------------------------------
      LOOP:  cpu time      3.0267: real time      3.0463

 eigenvalue-minimisations  :     0
 total energy-change (2. order) :-0.2210020E+01  (-0.6466021E+00)
 number of electron     135.9999998 magnetization 
 augmentation part        0.7378937 magnetization 

 Free energy of the ion-electron system (eV)
  ---------------------------------------------------
  alpha Z        PSCENC =       164.42561539
  Ewald energy   TEWEN  =     -4769.51426773
  -Hartree energ DENC   =     -3190.52832626
  -exchange      EXHF   =         0.00000000
  -V(xc)+E(xc)   XCENC  =       499.46395353
  PAW double counting   =     77434.75141449   -77410.05191671
  entropy T*S    EENTRO =        -0.00000000
  eigenvalues    EBANDS =     -1176.78002412
  atomic energy  EATOM  =      8281.20987292
  ---------------------------------------------------
  free energy    TOTEN  =      -167.02367848 eV

  energy without entropy =     -167.02367848  energy(sigma->0) =     -167.02367848


--------------------------------------------------------------------------------------------------------




--------------------------------------- Iteration      1(   9)  ---------------------------------------


    POTLOK:  cpu time      0.5883: real time      0.5886
    SETDIJ:  cpu time      0.0657: real time      0.0657
    TRIAL :  cpu time      0.9631: real time      0.9634
    CORREC:  cpu time      1.2538: real time      1.2541
    CHARGE:  cpu time      0.1259: real time      0.1259
    --------------------------------------------
      LOOP:  cpu time      3.0107: real time      3.0290

 eigenvalue-minimisations  :     0
 total energy-change (2. order) :-0.6463878E+00  (-0.1923751E+00)
 number of electron     135.9999998 magnetization 
 augmentation part        0.7536421 magnetization 

 Free energy of the ion-electron system (eV)
  ---------------------------------------------------
  alpha Z        PSCENC =       164.42561539
  Ewald energy   TEWEN  =     -4769.51426773
  -Hartree energ DENC   =     -3192.55838401
  -exchange      EXHF   =         0.00000000
  -V(xc)+E(xc)   XCENC  =       499.53253145
  PAW double counting   =     78639.40952127   -78614.71363929
  entropy T*S    EENTRO =        -0.00000000
  eigenvalues    EBANDS =     -1175.46131632
  atomic energy  EATOM  =      8281.20987292
  ---------------------------------------------------
  free energy    TOTEN  =      -167.67006631 eV

  energy without entropy =     -167.67006631  energy(sigma->0) =     -167.67006631


--------------------------------------------------------------------------------------------------------




--------------------------------------- Iteration      1(  10)  ---------------------------------------


    POTLOK:  cpu time      0.5900: real time      0.5902
    SETDIJ:  cpu time      0.0662: real time      0.0662
    TRIAL :  cpu time      0.9694: real time      0.9698
    CORREC:  cpu time      1.2871: real time      1.2875
    CHARGE:  cpu time      0.1268: real time      0.1268
    --------------------------------------------
      LOOP:  cpu time      3.0533: real time      3.0705

 eigenvalue-minimisations  :     0
 total energy-change (2. order) :-0.1921008E+00  (-0.5461756E-01)
 number of electron     135.9999998 magnetization 
 augmentation part        0.7592651 magnetization 

 Free energy of the ion-electron system (eV)
  ---------------------------------------------------
  alpha Z        PSCENC =       164.42561539
  Ewald energy   TEWEN  =     -4769.51426773
  -Hartree energ DENC   =     -3183.37367651
  -exchange      EXHF   =         0.00000000
  -V(xc)+E(xc)   XCENC  =       498.95484038
  PAW double counting   =     78337.18572344   -78312.52056572
  entropy T*S    EENTRO =        -0.00000000
  eigenvalues    EBANDS =     -1184.22970930
  atomic energy  EATOM  =      8281.20987292
  ---------------------------------------------------
  free energy    TOTEN  =      -167.86216711 eV

  energy without entropy =     -167.86216711  energy(sigma->0) =     -167.86216711


--------------------------------------------------------------------------------------------------------




--------------------------------------- Iteration      1(  11)  ---------------------------------------


    POTLOK:  cpu time      0.5933: real time      0.5935
    SETDIJ:  cpu time      0.0655: real time      0.0655
    TRIAL :  cpu time      0.9614: real time      0.9617
    CORREC:  cpu time      1.2484: real time      1.2488
    CHARGE:  cpu time      0.1262: real time      0.1263
    --------------------------------------------
      LOOP:  cpu time      3.0079: real time      3.0263

 eigenvalue-minimisations  :     0
 total energy-change (2. order) :-0.5463146E-01  (-0.1449252E-01)
 number of electron     135.9999998 magnetization 
 augmentation part        0.7590522 magnetization 

 Free energy of the ion-electron system (eV)
  ---------------------------------------------------
  alpha Z        PSCENC =       164.42561539
  Ewald energy   TEWEN  =     -4769.51426773
  -Hartree energ DENC   =     -3183.97002868
  -exchange      EXHF   =         0.00000000
  -V(xc)+E(xc)   XCENC  =       498.95980873
  PAW double counting   =     77685.05364871   -77660.44556484
  entropy T*S    EENTRO =        -0.00000000
  eigenvalues    EBANDS =     -1183.63588307
  atomic energy  EATOM  =      8281.20987292
  ---------------------------------------------------
  free energy    TOTEN  =      -167.91679857 eV

  energy without entropy =     -167.91679857  energy(sigma->0) =     -167.91679857


--------------------------------------------------------------------------------------------------------




--------------------------------------- Iteration      1(  12)  ---------------------------------------


    POTLOK:  cpu time      0.5866: real time      0.5868
    SETDIJ:  cpu time      0.0656: real time      0.0656
    TRIAL :  cpu time      0.9610: real time      0.9614
    CORREC:  cpu time      1.2575: real time      1.2578
    CHARGE:  cpu time      0.1266: real time      0.1266
    --------------------------------------------
      LOOP:  cpu time      3.0277: real time      3.0288

 eigenvalue-minimisations  :     0
 total energy-change (2. order) :-0.1449041E-01  (-0.3943868E-02)
 number of electron     135.9999998 magnetization 
 augmentation part        0.7572418 magnetization 

 Free energy of the ion-electron system (eV)
  ---------------------------------------------------
  alpha Z        PSCENC =       164.42561539
  Ewald energy   TEWEN  =     -4769.51426773
  -Hartree energ DENC   =     -3182.77116784
  -exchange      EXHF   =         0.00000000
  -V(xc)+E(xc)   XCENC  =       498.87746738
  PAW double counting   =     77930.11929983   -77905.50188279
  entropy T*S    EENTRO =        -0.00000000
  eigenvalues    EBANDS =     -1184.77622614
  atomic energy  EATOM  =      8281.20987292
  ---------------------------------------------------
  free energy    TOTEN  =      -167.93128898 eV

  energy without entropy =     -167.93128898  energy(sigma->0) =     -167.93128898


--------------------------------------------------------------------------------------------------------




--------------------------------------- Iteration      1(  13)  ---------------------------------------


    POTLOK:  cpu time      0.5880: real time      0.5883
    SETDIJ:  cpu time      0.0655: real time      0.0655
    TRIAL :  cpu time      0.9681: real time      0.9684
    CORREC:  cpu time      1.2497: real time      1.2501
    CHARGE:  cpu time      0.1260: real time      0.1260
    --------------------------------------------
      LOOP:  cpu time      3.0273: real time      3.0284

 eigenvalue-minimisations  :     0
 total energy-change (2. order) :-0.3939404E-02  (-0.1044130E-02)
 number of electron     135.9999998 magnetization 
 augmentation part        0.7565589 magnetization 

 Free energy of the ion-electron system (eV)
  ---------------------------------------------------
  alpha Z        PSCENC =       164.42561539
  Ewald energy   TEWEN  =     -4769.51426773
  -Hartree energ DENC   =     -3182.23450347
  -exchange      EXHF   =         0.00000000
  -V(xc)+E(xc)   XCENC  =       498.85374288
  PAW double counting   =     78123.71031498   -78099.08027253
  entropy T*S    EENTRO =        -0.00000000
  eigenvalues    EBANDS =     -1185.30573082
  atomic energy  EATOM  =      8281.20987292
  ---------------------------------------------------
  free energy    TOTEN  =      -167.93522839 eV

  energy without entropy =     -167.93522839  energy(sigma->0) =     -167.93522839


--------------------------------------------------------------------------------------------------------




--------------------------------------- Iteration      1(  14)  ---------------------------------------


    POTLOK:  cpu time      0.5867: real time      0.5871
    SETDIJ:  cpu time      0.0657: real time      0.0657
    TRIAL :  cpu time      0.9901: real time      0.9905
    CORREC:  cpu time      1.3154: real time      1.3159
    CHARGE:  cpu time      0.1261: real time      0.1263
    --------------------------------------------
      LOOP:  cpu time      3.0971: real time      3.1161

 eigenvalue-minimisations  :     0
 total energy-change (2. order) :-0.1042176E-02  (-0.3400941E-03)
 number of electron     135.9999998 magnetization 
 augmentation part        0.7566332 magnetization 

 Free energy of the ion-electron system (eV)
  ---------------------------------------------------
  alpha Z        PSCENC =       164.42561539
  Ewald energy   TEWEN  =     -4769.51426773
  -Hartree energ DENC   =     -3182.12365545
  -exchange      EXHF   =         0.00000000
  -V(xc)+E(xc)   XCENC  =       498.84662455
  PAW double counting   =     78099.66863181   -78075.03608247
  entropy T*S    EENTRO =        -0.00000000
  eigenvalues    EBANDS =     -1185.41300959
  atomic energy  EATOM  =      8281.20987292
  ---------------------------------------------------
  free energy    TOTEN  =      -167.93627056 eV

  energy without entropy =     -167.93627056  energy(sigma->0) =     -167.93627056


--------------------------------------------------------------------------------------------------------




--------------------------------------- Iteration      1(  15)  ---------------------------------------


    POTLOK:  cpu time      0.5895: real time      0.5895
    SETDIJ:  cpu time      0.0656: real time      0.0656
    TRIAL :  cpu time      0.9594: real time      0.9598
    CORREC:  cpu time      1.2509: real time      1.2514
    CHARGE:  cpu time      0.1261: real time      0.1264
    --------------------------------------------
      LOOP:  cpu time      3.0215: real time      3.0228

 eigenvalue-minimisations  :     0
 total energy-change (2. order) :-0.3405868E-03  (-0.1344900E-03)
 number of electron     135.9999998 magnetization 
 augmentation part        0.7565935 magnetization 

 Free energy of the ion-electron system (eV)
  ---------------------------------------------------
  alpha Z        PSCENC =       164.42561539
  Ewald energy   TEWEN  =     -4769.51426773
  -Hartree energ DENC   =     -3182.16080516
  -exchange      EXHF   =         0.00000000
  -V(xc)+E(xc)   XCENC  =       498.84677809
  PAW double counting   =     78026.46877996   -78001.83831220
  entropy T*S    EENTRO =        -0.00000000
  eigenvalues    EBANDS =     -1185.37427243
  atomic energy  EATOM  =      8281.20987292
  ---------------------------------------------------
  free energy    TOTEN  =      -167.93661115 eV

  energy without entropy =     -167.93661115  energy(sigma->0) =     -167.93661115


--------------------------------------------------------------------------------------------------------




--------------------------------------- Iteration      1(  16)  ---------------------------------------


    POTLOK:  cpu time      0.5908: real time      0.5908
    SETDIJ:  cpu time      0.0677: real time      0.0677
    TRIAL :  cpu time      1.0141: real time      1.0144
    CORREC:  cpu time      1.2516: real time      1.2523
    CHARGE:  cpu time      0.1434: real time      0.1434
    --------------------------------------------
      LOOP:  cpu time      3.0869: real time      3.0995

 eigenvalue-minimisations  :     0
 total energy-change (2. order) :-0.1346981E-03  (-0.5730730E-04)
 number of electron     135.9999998 magnetization 
 augmentation part        0.7563609 magnetization 

 Free energy of the ion-electron system (eV)
  ---------------------------------------------------
  alpha Z        PSCENC =       164.42561539
  Ewald energy   TEWEN  =     -4769.51426773
  -Hartree energ DENC   =     -3182.20974632
  -exchange      EXHF   =         0.00000000
  -V(xc)+E(xc)   XCENC  =       498.84923716
  PAW double counting   =     77990.21217424   -77965.58239942
  entropy T*S    EENTRO =        -0.00000000
  eigenvalues    EBANDS =     -1185.32723209
  atomic energy  EATOM  =      8281.20987292
  ---------------------------------------------------
  free energy    TOTEN  =      -167.93674585 eV

  energy without entropy =     -167.93674585  energy(sigma->0) =     -167.93674585


--------------------------------------------------------------------------------------------------------




--------------------------------------- Iteration      1(  17)  ---------------------------------------


    POTLOK:  cpu time      0.5907: real time      0.5907
    SETDIJ:  cpu time      0.0656: real time      0.0656
    TRIAL :  cpu time      0.9596: real time      0.9600
    CORREC:  cpu time      1.2496: real time      1.2504
    CHARGE:  cpu time      0.1260: real time      0.1261
    --------------------------------------------
      LOOP:  cpu time      3.0054: real time      3.0232

 eigenvalue-minimisations  :     0
 total energy-change (2. order) :-0.5669730E-04  (-0.1973252E-04)
 number of electron     135.9999998 magnetization 
 augmentation part        0.7561986 magnetization 

 Free energy of the ion-electron system (eV)
  ---------------------------------------------------
  alpha Z        PSCENC =       164.42561539
  Ewald energy   TEWEN  =     -4769.51426773
  -Hartree energ DENC   =     -3182.22433415
  -exchange      EXHF   =         0.00000000
  -V(xc)+E(xc)   XCENC  =       498.85028824
  PAW double counting   =     78005.66410614   -77981.03290226
  entropy T*S    EENTRO =        -0.00000000
  eigenvalues    EBANDS =     -1185.31518110
  atomic energy  EATOM  =      8281.20987292
  ---------------------------------------------------
  free energy    TOTEN  =      -167.93680254 eV

  energy without entropy =     -167.93680254  energy(sigma->0) =     -167.93680254


--------------------------------------------------------------------------------------------------------




--------------------------------------- Iteration      1(  18)  ---------------------------------------


    POTLOK:  cpu time      0.5888: real time      0.5888
    SETDIJ:  cpu time      0.0655: real time      0.0655
    TRIAL :  cpu time      0.9612: real time      0.9615
    CORREC:  cpu time      1.2534: real time      1.2544
    CHARGE:  cpu time      0.1266: real time      0.1266
    --------------------------------------------
      LOOP:  cpu time      3.0247: real time      3.0262

 eigenvalue-minimisations  :     0
 total energy-change (2. order) :-0.1922471E-04  (-0.5323497E-05)
 number of electron     135.9999998 magnetization 
 augmentation part        0.7561841 magnetization 

 Free energy of the ion-electron system (eV)
  ---------------------------------------------------
  alpha Z        PSCENC =       164.42561539
  Ewald energy   TEWEN  =     -4769.51426773
  -Hartree energ DENC   =     -3182.25336964
  -exchange      EXHF   =         0.00000000
  -V(xc)+E(xc)   XCENC  =       498.85168833
  PAW double counting   =     78031.54069296   -78006.90834604
  entropy T*S    EENTRO =        -0.00000000
  eigenvalues    EBANDS =     -1185.28870797
  atomic energy  EATOM  =      8281.20987292
  ---------------------------------------------------
  free energy    TOTEN  =      -167.93682177 eV

  energy without entropy =     -167.93682177  energy(sigma->0) =     -167.93682177


--------------------------------------------------------------------------------------------------------




--------------------------------------- Iteration      1(  19)  ---------------------------------------


    POTLOK:  cpu time      0.5969: real time      0.5970
    SETDIJ:  cpu time      0.0656: real time      0.0656
    TRIAL :  cpu time      0.9617: real time      0.9620
    CORREC:  cpu time      1.2458: real time      1.2466
    CHARGE:  cpu time      0.1274: real time      0.1274
    --------------------------------------------
      LOOP:  cpu time      3.0122: real time      3.0291

 eigenvalue-minimisations  :     0
 total energy-change (2. order) :-0.5253532E-05  (-0.1452568E-05)
 number of electron     135.9999998 magnetization 
 augmentation part        0.7561844 magnetization 

 Free energy of the ion-electron system (eV)
  ---------------------------------------------------
  alpha Z        PSCENC =       164.42561539
  Ewald energy   TEWEN  =     -4769.51426773
  -Hartree energ DENC   =     -3182.27036418
  -exchange      EXHF   =         0.00000000
  -V(xc)+E(xc)   XCENC  =       498.85280003
  PAW double counting   =     78040.57819703   -78015.94576221
  entropy T*S    EENTRO =        -0.00000000
  eigenvalues    EBANDS =     -1185.27291828
  atomic energy  EATOM  =      8281.20987292
  ---------------------------------------------------
  free energy    TOTEN  =      -167.93682702 eV

  energy without entropy =     -167.93682702  energy(sigma->0) =     -167.93682702


--------------------------------------------------------------------------------------------------------




--------------------------------------- Iteration      1(  20)  ---------------------------------------


    POTLOK:  cpu time      0.5913: real time      0.5913
    SETDIJ:  cpu time      0.0655: real time      0.0655
    TRIAL :  cpu time      0.9805: real time      0.9808
    CORREC:  cpu time      1.2476: real time      1.2484
    CHARGE:  cpu time      0.1268: real time      0.1268
    --------------------------------------------
      LOOP:  cpu time      3.0244: real time      3.0432

 eigenvalue-minimisations  :     0
 total energy-change (2. order) :-0.1477878E-05  (-0.4516434E-06)
 number of electron     135.9999998 magnetization 
 augmentation part        0.7562000 magnetization 

 Free energy of the ion-electron system (eV)
  ---------------------------------------------------
  alpha Z        PSCENC =       164.42561539
  Ewald energy   TEWEN  =     -4769.51426773
  -Hartree energ DENC   =     -3182.25896298
  -exchange      EXHF   =         0.00000000
  -V(xc)+E(xc)   XCENC  =       498.85207653
  PAW double counting   =     78039.93510503   -78015.30260993
  entropy T*S    EENTRO =        -0.00000000
  eigenvalues    EBANDS =     -1185.28365773
  atomic energy  EATOM  =      8281.20987292
  ---------------------------------------------------
  free energy    TOTEN  =      -167.93682850 eV

  energy without entropy =     -167.93682850  energy(sigma->0) =     -167.93682850


--------------------------------------------------------------------------------------------------------




--------------------------------------- Iteration      1(  21)  ---------------------------------------


    POTLOK:  cpu time      0.5846: real time      0.5846
    SETDIJ:  cpu time      0.0655: real time      0.0658
    TRIAL :  cpu time      0.9625: real time      0.9625
    CORREC:  cpu time      1.2506: real time      1.2513
    CHARGE:  cpu time      0.1324: real time      0.1324
    --------------------------------------------
      LOOP:  cpu time      3.0101: real time      3.0280

 eigenvalue-minimisations  :     0
 total energy-change (2. order) :-0.4718750E-06  (-0.1605016E-06)
 number of electron     135.9999998 magnetization 
 augmentation part        0.7562052 magnetization 

 Free energy of the ion-electron system (eV)
  ---------------------------------------------------
  alpha Z        PSCENC =       164.42561539
  Ewald energy   TEWEN  =     -4769.51426773
  -Hartree energ DENC   =     -3182.25938357
  -exchange      EXHF   =         0.00000000
  -V(xc)+E(xc)   XCENC  =       498.85208290
  PAW double counting   =     78036.90266848   -78012.27029721
  entropy T*S    EENTRO =        -0.00000000
  eigenvalues    EBANDS =     -1185.28312016
  atomic energy  EATOM  =      8281.20987292
  ---------------------------------------------------
  free energy    TOTEN  =      -167.93682897 eV

  energy without entropy =     -167.93682897  energy(sigma->0) =     -167.93682897


--------------------------------------------------------------------------------------------------------




--------------------------------------- Iteration      1(  22)  ---------------------------------------


    POTLOK:  cpu time      0.6677: real time      0.6680
    SETDIJ:  cpu time      0.0654: real time      0.0655
    TRIAL :  cpu time      0.9612: real time      0.9616
    CORREC:  cpu time      1.2520: real time      1.2523
    CHARGE:  cpu time      0.1266: real time      0.1266
    --------------------------------------------
      LOOP:  cpu time      3.0899: real time      3.1041

 eigenvalue-minimisations  :     0
 total energy-change (2. order) :-0.1697044E-06  (-0.6524530E-07)
 number of electron     135.9999998 magnetization 
 augmentation part        0.7562040 magnetization 

 Free energy of the ion-electron system (eV)
  ---------------------------------------------------
  alpha Z        PSCENC =       164.42561539
  Ewald energy   TEWEN  =     -4769.51426773
  -Hartree energ DENC   =     -3182.25800654
  -exchange      EXHF   =         0.00000000
  -V(xc)+E(xc)   XCENC  =       498.85199603
  PAW double counting   =     78034.86238989   -78010.23005363
  entropy T*S    EENTRO =        -0.00000000
  eigenvalues    EBANDS =     -1185.28437547
  atomic energy  EATOM  =      8281.20987292
  ---------------------------------------------------
  free energy    TOTEN  =      -167.93682914 eV

  energy without entropy =     -167.93682914  energy(sigma->0) =     -167.93682914


--------------------------------------------------------------------------------------------------------




--------------------------------------- Iteration      1(  23)  ---------------------------------------


    POTLOK:  cpu time      0.5894: real time      0.5897
    SETDIJ:  cpu time      0.0656: real time      0.0656
    TRIAL :  cpu time      0.9598: real time      0.9601
    CORREC:  cpu time      1.2439: real time      1.2443
    EDDIAG:  cpu time      0.5125: real time      0.5127
    CHARGE:  cpu time      0.1247: real time      0.1247
    --------------------------------------------
      LOOP:  cpu time      3.5267: real time      3.5282

 eigenvalue-minimisations  :     0
 total energy-change (2. order) :-0.6599294E-07  (-0.2578099E-07)
 number of electron     135.9999998 magnetization 
 augmentation part        0.7562061 magnetization 

 Free energy of the ion-electron system (eV)
  ---------------------------------------------------
  alpha Z        PSCENC =       164.42561539
  Ewald energy   TEWEN  =     -4769.51426773
  -Hartree energ DENC   =     -3182.25498487
  -exchange      EXHF   =         0.00000000
  -V(xc)+E(xc)   XCENC  =       498.85182710
  PAW double counting   =     78034.11085182   -78009.47849071
  entropy T*S    EENTRO =        -0.00000000
  eigenvalues    EBANDS =     -1185.28725312
  atomic energy  EATOM  =      8281.20987292
  ---------------------------------------------------
  free energy    TOTEN  =      -167.93682921 eV

  energy without entropy =     -167.93682921  energy(sigma->0) =     -167.93682921


--------------------------------------------------------------------------------------------------------


  average scaling for gradient   0.7631


 average (electrostatic) potential at core
  the test charge radii are     0.5770  0.4325  0.5955
  (the norm of the test charge is              1.0000)
       1 -84.6578       2 -84.6578       3 -84.6578       4 -84.6577       5 -84.6578
       6 -84.6578       7 -84.6577       8 -84.6578       9 -42.7581      10 -42.7581
      11 -42.7580      12 -42.7580      13 -42.7580      14 -42.7580      15 -42.7580
      16 -42.7580      17-114.0230      18-115.1208      19-114.0230      20-115.1208
      21-114.0230      22-114.0230      23-114.0230      24-114.0230      25-114.0230
      26-114.0230      27-115.1208      28-115.1208      29-115.1208      30-115.1208
      31-115.1208      32-115.1208



 E-fermi :  -0.2237     XC(G=0):  -8.8297     alpha+bet : -7.5870

 Fermi energy:        -0.2237002633

 k-point     1 :       0.0000    0.0000    0.0000
  band No.  band energies     occupation 
      1     -22.4532      2.00000
      2     -22.2720      2.00000
      3     -22.1242      2.00000
      4     -22.0681      2.00000
      5     -21.6387      2.00000
      6     -21.6001      2.00000
      7     -21.5653      2.00000
      8     -21.5079      2.00000
      9     -20.1245      2.00000
     10     -20.1039      2.00000
     11     -19.8498      2.00000
     12     -19.8190      2.00000
     13     -19.7374      2.00000
     14     -19.6806      2.00000
     15     -19.4101      2.00000
     16     -19.3784      2.00000
     17     -12.0170      2.00000
     18     -11.7200      2.00000
     19     -11.6907      2.00000
     20     -11.4478      2.00000
     21      -9.8841      2.00000
     22      -9.8120      2.00000
     23      -9.3262      2.00000
     24      -9.2884      2.00000
     25      -7.2743      2.00000
     26      -7.2636      2.00000
     27      -7.2294      2.00000
     28      -6.9455      2.00000
     29      -6.8718      2.00000
     30      -6.8193      2.00000
     31      -6.7126      2.00000
     32      -6.6511      2.00000
     33      -6.6011      2.00000
     34      -6.3555      2.00000
     35      -5.6526      2.00000
     36      -5.5662      2.00000
     37      -5.5022      2.00000
     38      -5.4826      2.00000
     39      -5.4777      2.00000
     40      -5.2592      2.00000
     41      -4.6274      2.00000
     42      -4.5771      2.00000
     43      -4.5244      2.00000
     44      -4.4521      2.00000
     45      -4.1837      2.00000
     46      -4.0035      2.00000
     47      -3.8551      2.00000
     48      -3.6253      2.00000
     49      -3.4049      2.00000
     50      -3.3876      2.00000
     51      -3.2427      2.00000
     52      -3.0378      2.00000
     53      -2.2404      2.00000
     54      -2.2384      2.00000
     55      -2.2237      2.00000
     56      -2.1582      2.00000
     57      -2.0035      2.00000
     58      -1.9880      2.00000
     59      -1.9467      2.00000
[...]
      7     -21.5693      2.00000
      8     -21.5693      2.00000
      9     -19.9919      2.00000
     10     -19.9919      2.00000
     11     -19.9832      2.00000
     12     -19.9832      2.00000
     13     -19.5345      2.00000
     14     -19.5345      2.00000
     15     -19.5294      2.00000
     16     -19.5294      2.00000
     17     -11.7309      2.00000
     18     -11.7309      2.00000
     19     -11.7187      2.00000
     20     -11.7187      2.00000
     21      -9.6203      2.00000
     22      -9.6203      2.00000
     23      -9.5926      2.00000
     24      -9.5926      2.00000
     25      -7.2751      2.00000
     26      -7.2751      2.00000
     27      -7.2199      2.00000
     28      -7.2199      2.00000
     29      -6.4905      2.00000
     30      -6.4905      2.00000
     31      -6.4372      2.00000
     32      -6.4372      2.00000
     33      -6.2860      2.00000
     34      -6.2860      2.00000
     35      -6.1346      2.00000
     36      -6.1346      2.00000
     37      -5.5155      2.00000
     38      -5.5155      2.00000
     39      -5.4184      2.00000
     40      -5.4184      2.00000
     41      -4.5410      2.00000
     42      -4.5410      2.00000
     43      -4.3982      2.00000
     44      -4.3982      2.00000
     45      -4.1622      2.00000
     46      -4.1622      2.00000
     47      -4.0139      2.00000
     48      -4.0138      2.00000
     49      -3.2537      2.00000
     50      -3.2537      2.00000
     51      -3.1499      2.00000
     52      -3.1499      2.00000
     53      -2.1889      2.00000
     54      -2.1889      2.00000
     55      -2.1278      2.00000
     56      -2.1278      2.00000
     57      -1.9043      2.00000
     58      -1.9043      2.00000
     59      -1.8374      2.00000
     60      -1.8374      2.00000
     61      -1.7990      2.00000
     62      -1.7990      2.00000
     63      -1.7423      2.00000
     64      -1.7423      2.00000
     65      -0.5395      2.00000
     66      -0.5395      2.00000
     67      -0.5256      2.00000
     68      -0.5256      2.00000
     69       3.2730      0.00000
     70       3.2730      0.00000
     71       3.3654      0.00000
     72       3.3654      0.00000
     73       6.7264      0.00000
     74       6.7264      0.00000
     75       6.7904      0.00000
     76       6.7904      0.00000
     77       7.6596      0.00000
     78       7.6596      0.00000
     79       8.2205      0.00000
     80       8.2213      0.00000
     81       9.6137      0.00000
     82       9.6228      0.00000
     83       9.8762      0.00000
     84       9.8826      0.00000
     85      10.3956      0.00000
     86      10.4356      0.00000
     87      10.5681      0.00000
     88      10.7335      0.00000

 k-point    17 :       0.2500    0.3333    0.5000
  band No.  band energies     occupation 
      1     -22.2520      2.00000
      2     -22.2520      2.00000
      3     -22.2212      2.00000
      4     -22.2212      2.00000
      5     -21.5865      2.00000
      6     -21.5865      2.00000
      7     -21.5735      2.00000
      8     -21.5734      2.00000
      9     -19.9913      2.00000
     10     -19.9913      2.00000
     11     -19.9851      2.00000
     12     -19.9851      2.00000
     13     -19.5335      2.00000
     14     -19.5335      2.00000
     15     -19.5299      2.00000
     16     -19.5299      2.00000
     17     -11.7259      2.00000
     18     -11.7259      2.00000
     19     -11.7172      2.00000
     20     -11.7172      2.00000
     21      -9.6182      2.00000
     22      -9.6182      2.00000
     23      -9.5986      2.00000
     24      -9.5986      2.00000
     25      -7.2642      2.00000
     26      -7.2642      2.00000
     27      -7.2168      2.00000
     28      -7.2168      2.00000
     29      -6.5731      2.00000
     30      -6.5731      2.00000
     31      -6.5161      2.00000
     32      -6.5161      2.00000
     33      -6.1631      2.00000
     34      -6.1631      2.00000
     35      -6.0638      2.00000
     36      -6.0638      2.00000
     37      -5.5212      2.00000
     38      -5.5211      2.00000
     39      -5.4399      2.00000
     40      -5.4399      2.00000
     41      -4.5051      2.00000
     42      -4.5051      2.00000
     43      -4.4029      2.00000
     44      -4.4029      2.00000
     45      -4.1474      2.00000
     46      -4.1474      2.00000
     47      -4.0348      2.00000
     48      -4.0347      2.00000
     49      -3.2523      2.00000
     50      -3.2523      2.00000
     51      -3.1838      2.00000
     52      -3.1838      2.00000
     53      -2.1734      2.00000
     54      -2.1734      2.00000
     55      -2.1249      2.00000
     56      -2.1249      2.00000
     57      -1.9472      2.00000
     58      -1.9472      2.00000
     59      -1.8666      2.00000
     60      -1.8666      2.00000
     61      -1.8074      2.00000
     62      -1.8074      2.00000
     63      -1.7473      2.00000
     64      -1.7473      2.00000
     65      -0.5314      2.00000
     66      -0.5314      2.00000
     67      -0.5212      2.00000
     68      -0.5212      2.00000
     69       3.2858      0.00000
     70       3.2858      0.00000
     71       3.3496      0.00000
     72       3.3496      0.00000
     73       6.7547      0.00000
     74       6.7547      0.00000
     75       6.7966      0.00000
     76       6.7966      0.00000
     77       7.8643      0.00000
     78       7.8644      0.00000
     79       8.4056      0.00000
     80       8.4059      0.00000
     81       9.1987      0.00000
     82       9.1997      0.00000
     83       9.6627      0.00000
     84       9.6736      0.00000
     85      10.2713      0.00000
     86      10.3171      0.00000
     87      10.5580      0.00000
     88      10.7882      0.00000

 k-point    18 :       0.5000    0.3333    0.5000
  band No.  band energies     occupation 
      1     -22.2352      2.00000
      2     -22.2352      2.00000
      3     -22.2352      2.00000
      4     -22.2352      2.00000
      5     -21.5815      2.00000
      6     -21.5815      2.00000
      7     -21.5815      2.00000
      8     -21.5814      2.00000
      9     -19.9889      2.00000
     10     -19.9889      2.00000
     11     -19.9889      2.00000
     12     -19.9889      2.00000
     13     -19.5314      2.00000
     14     -19.5314      2.00000
     15     -19.5314      2.00000
     16     -19.5314      2.00000
     17     -11.7184      2.00000
     18     -11.7183      2.00000
     19     -11.7183      2.00000
     20     -11.7183      2.00000
     21      -9.6104      2.00000
     22      -9.6104      2.00000
     23      -9.6104      2.00000
     24      -9.6104      2.00000
     25      -7.2338      2.00000
     26      -7.2338      2.00000
     27      -7.2338      2.00000
     28      -7.2338      2.00000
     29      -6.5993      2.00000
     30      -6.5993      2.00000
     31      -6.5993      2.00000
     32      -6.5993      2.00000
     33      -6.0418      2.00000
     34      -6.0418      2.00000
     35      -6.0418      2.00000
     36      -6.0418      2.00000
     37      -5.4940      2.00000
     38      -5.4940      2.00000
     39      -5.4940      2.00000
     40      -5.4940      2.00000
     41      -4.4406      2.00000
     42      -4.4406      2.00000
     43      -4.4406      2.00000
     44      -4.4406      2.00000
     45      -4.0925      2.00000
     46      -4.0925      2.00000
     47      -4.0925      2.00000
     48      -4.0924      2.00000
     49      -3.2347      2.00000
     50      -3.2347      2.00000
     51      -3.2347      2.00000
     52      -3.2347      2.00000
     53      -2.1362      2.00000
     54      -2.1362      2.00000
     55      -2.1362      2.00000
     56      -2.1362      2.00000
     57      -1.9517      2.00000
     58      -1.9517      2.00000
     59      -1.9517      2.00000
     60      -1.9517      2.00000
     61      -1.7791      2.00000
     62      -1.7791      2.00000
     63      -1.7791      2.00000
     64      -1.7791      2.00000
     65      -0.5196      2.00000
     66      -0.5196      2.00000
     67      -0.5196      2.00000
     68      -0.5196      2.00000
     69       3.3158      0.00000
     70       3.3158      0.00000
     71       3.3158      0.00000
     72       3.3158      0.00000
     73       6.7911      0.00000
     74       6.7911      0.00000
     75       6.7911      0.00000
     76       6.7911      0.00000
     77       8.3968      0.00000
     78       8.3969      0.00000
     79       8.3972      0.00000
     80       8.3974      0.00000
     81       9.0400      0.00000
     82       9.0403      0.00000
     83       9.0404      0.00000
     84       9.0422      0.00000
     85      10.4324      0.00000
     86      10.4383      0.00000
     87      10.4973      0.00000
     88      10.5477      0.00000


--------------------------------------------------------------------------------------------------------


 soft charge-density along one line, spin component           1
         0         1         2         3         4         5         6         7         8         9
 total charge-density along one line

 pseudopotential strength for first ion, spin component:           1
 12.619  21.236   0.010  -0.002   0.002   0.018  -0.004   0.004
 21.236  35.736   0.017  -0.004   0.003   0.030  -0.007   0.006
  0.010   0.017  -3.148  -0.001   0.000  -5.639  -0.001   0.001
 -0.002  -0.004  -0.001  -3.148  -0.008  -0.001  -5.640  -0.013
  0.002   0.003   0.000  -0.008  -3.154   0.001  -0.013  -5.650
  0.018   0.030  -5.639  -0.001   0.001 -10.081  -0.003   0.002
 -0.004  -0.007  -0.001  -5.640  -0.013  -0.003 -10.083  -0.024
  0.004   0.006   0.001  -0.013  -5.650   0.002  -0.024 -10.100
 total augmentation occupancy for first ion, spin component:           1
  8.050  -3.019   0.397  -1.560   1.099  -0.192   0.708  -0.500
 -3.019   1.261  -0.261   0.764  -0.541   0.103  -0.333   0.236
  0.397  -0.261   7.404   1.409  -1.003  -2.654  -0.653   0.463
 -1.560   0.764   1.409   6.315  -2.593  -0.652  -2.176   1.063
  1.099  -0.541  -1.003  -2.593   4.553   0.463   1.063  -1.455
 -0.192   0.103  -2.654  -0.652   0.463   0.986   0.290  -0.205
  0.708  -0.333  -0.653  -2.176   1.063   0.290   0.791  -0.438
 -0.500   0.236   0.463   1.063  -1.455  -0.205  -0.438   0.494


------------------------ aborting loop because EDIFF is reached ----------------------------------------


    FORLOC:  cpu time      0.0059: real time      0.0059
    FORNL :  cpu time      0.4263: real time      0.4266
    FORCOR:  cpu time      0.6500: real time      0.6505
    OFIELD:  cpu time      0.0022: real time      0.0026

 VOLUME and BASIS-vectors are now :
 -----------------------------------------------------------------------------
  energy-cutoff  :     1000.00
  volume of cell :      312.59
      direct lattice vectors                 reciprocal lattice vectors
     6.548000000  0.000000000  0.000000000     0.152718387  0.000000000  0.000000000
     0.000000000  7.844000000  0.000000000     0.000000000  0.127485977  0.000000000
     0.000000000  0.000000000  6.086000000     0.000000000  0.000000000  0.164311535

  length of vectors
     6.548000000  7.844000000  6.086000000     0.152718387  0.127485977  0.164311535


 FORCES acting on ions:
    Electron-Ion                     Ewald-Force                    Non-Local-Force
 -----------------------------------------------------------------------------------------------
   0.229E+02 0.998E+01 -.369E+02   -.239E+02 -.164E+02 0.380E+02   0.985E+00 0.655E+01 -.104E+01
   -.229E+02 -.998E+01 0.369E+02   0.239E+02 0.164E+02 -.380E+02   -.985E+00 -.655E+01 0.104E+01
   -.229E+02 0.998E+01 -.369E+02   0.239E+02 -.164E+02 0.380E+02   -.985E+00 0.655E+01 -.104E+01
   0.229E+02 -.998E+01 -.369E+02   -.239E+02 0.164E+02 0.380E+02   0.985E+00 -.655E+01 -.104E+01
   -.229E+02 -.998E+01 -.369E+02   0.239E+02 0.164E+02 0.380E+02   -.985E+00 -.655E+01 -.104E+01
   0.229E+02 -.998E+01 0.369E+02   -.239E+02 0.164E+02 -.380E+02   0.985E+00 -.655E+01 0.104E+01
   -.229E+02 0.998E+01 0.369E+02   0.239E+02 -.164E+02 -.380E+02   -.985E+00 0.655E+01 0.104E+01
   0.229E+02 0.998E+01 0.369E+02   -.239E+02 -.164E+02 -.380E+02   0.985E+00 0.655E+01 0.104E+01
   -.266E+02 -.368E+02 0.356E+02   0.296E+02 0.413E+02 -.403E+02   -.304E+01 -.469E+01 0.482E+01
   0.266E+02 0.368E+02 -.356E+02   -.296E+02 -.413E+02 0.403E+02   0.304E+01 0.469E+01 -.482E+01
   0.266E+02 -.368E+02 0.356E+02   -.296E+02 0.413E+02 -.403E+02   0.304E+01 -.469E+01 0.482E+01
   -.266E+02 0.368E+02 0.356E+02   0.296E+02 -.413E+02 -.403E+02   -.304E+01 0.469E+01 0.482E+01
   0.266E+02 0.368E+02 0.356E+02   -.296E+02 -.413E+02 -.403E+02   0.304E+01 0.469E+01 0.482E+01
   -.266E+02 0.368E+02 -.356E+02   0.296E+02 -.413E+02 0.403E+02   -.304E+01 0.469E+01 -.482E+01
   0.266E+02 -.368E+02 -.356E+02   -.296E+02 0.413E+02 0.403E+02   0.304E+01 -.469E+01 -.482E+01
   -.266E+02 -.368E+02 -.356E+02   0.296E+02 0.413E+02 0.403E+02   -.304E+01 -.469E+01 -.482E+01
   -.108E+03 0.568E+02 0.145E+03   0.136E+03 -.737E+02 -.183E+03   -.278E+02 0.170E+02 0.373E+02
   0.301E+02 -.158E+03 -.512E+02   -.526E+02 0.182E+03 0.848E+02   0.227E+02 -.237E+02 -.338E+02
   0.108E+03 -.568E+02 -.145E+03   -.136E+03 0.737E+02 0.183E+03   0.278E+02 -.170E+02 -.373E+02
   -.301E+02 0.158E+03 0.512E+02   0.526E+02 -.182E+03 -.848E+02   -.227E+02 0.237E+02 0.338E+02
   0.108E+03 0.568E+02 0.145E+03   -.136E+03 -.737E+02 -.183E+03   0.278E+02 0.170E+02 0.373E+02
   -.108E+03 -.568E+02 0.145E+03   0.136E+03 0.737E+02 -.183E+03   -.278E+02 -.170E+02 0.373E+02
   0.108E+03 -.568E+02 0.145E+03   -.136E+03 0.737E+02 -.183E+03   0.278E+02 -.170E+02 0.373E+02
   -.108E+03 -.568E+02 -.145E+03   0.136E+03 0.737E+02 0.183E+03   -.278E+02 -.170E+02 -.373E+02
   0.108E+03 0.568E+02 -.145E+03   -.136E+03 -.737E+02 0.183E+03   0.278E+02 0.170E+02 -.373E+02
   -.108E+03 0.568E+02 -.145E+03   0.136E+03 -.737E+02 0.183E+03   -.278E+02 0.170E+02 -.373E+02
   -.301E+02 -.158E+03 -.512E+02   0.526E+02 0.182E+03 0.848E+02   -.227E+02 -.237E+02 -.338E+02
   0.301E+02 0.158E+03 -.512E+02   -.526E+02 -.182E+03 0.848E+02   0.227E+02 0.237E+02 -.338E+02
   -.301E+02 0.158E+03 -.512E+02   0.526E+02 -.182E+03 0.848E+02   -.227E+02 0.237E+02 -.338E+02
   0.301E+02 0.158E+03 0.512E+02   -.526E+02 -.182E+03 -.848E+02   0.227E+02 0.237E+02 0.338E+02
   -.301E+02 -.158E+03 0.512E+02   0.526E+02 0.182E+03 -.848E+02   -.227E+02 -.237E+02 0.338E+02
   0.301E+02 -.158E+03 0.512E+02   -.526E+02 0.182E+03 -.848E+02   0.227E+02 -.237E+02 0.338E+02
 -----------------------------------------------------------------------------------------------
   -.759E-03 0.385E-02 0.736E-03   0.107E-12 0.256E-12 -.284E-13   -.178E-13 0.355E-14 -.711E-14


 POSITION                                       TOTAL-FORCE (eV/Angst)
 -----------------------------------------------------------------------------------
      0.37583      0.43233      5.56714        -0.007565     -0.106782      0.011276
      6.17217      7.41167      0.51886         0.007565      0.106782     -0.011276
      2.89817      0.43233      2.52414         0.007565     -0.106782      0.011276
      3.64983      3.48967      5.56714        -0.007565      0.106782      0.011276
      6.17217      3.48967      2.52414         0.007565      0.106782      0.011276
      3.64983      7.41167      3.56186        -0.007565      0.106782     -0.011276
      2.89817      4.35433      0.51886         0.007565     -0.106782     -0.011276
      0.37583      4.35433      3.56186        -0.007565     -0.106782     -0.011276
      0.63015      2.31843      5.13527        -0.069754     -0.146744      0.128419
      5.91785      5.52557      0.95073         0.069754      0.146744     -0.128419
      2.64385      2.31843      2.09227         0.069754     -0.146744      0.128419
      3.90415      1.60357      5.13527        -0.069754      0.146744      0.128419
      5.91785      1.60357      2.09227         0.069754      0.146744      0.128419
      3.90415      5.52557      3.99373        -0.069754      0.146744     -0.128419
      2.64385      6.24043      0.95073         0.069754     -0.146744     -0.128419
      0.63015      6.24043      3.99373        -0.069754     -0.146744     -0.128419
      1.02885      7.78797      4.65332         0.155507     -0.024004     -0.169296
      0.20001      1.71027      5.81226         0.019383      0.422308     -0.020632
      5.51915      0.05603      1.43268        -0.155507      0.024004      0.169296
      6.34799      6.13373      0.27374        -0.019383     -0.422308      0.020632
      2.24515      7.78798      1.61032        -0.155507     -0.024004     -0.169296
      4.30285      3.97802      4.65332         0.155507      0.024004     -0.169296
      5.51915      3.97803      1.61032        -0.155507      0.024004     -0.169296
      4.30285      0.05602      4.47568         0.155507      0.024004      0.169296
      2.24515      3.86598      1.43268        -0.155507     -0.024004      0.169296
      1.02885      3.86597      4.47568         0.155507     -0.024004      0.169296
      3.07399      1.71027      2.76927        -0.019383      0.422308     -0.020632
      3.47401      2.21173      5.81226         0.019383     -0.422308     -0.020632
      6.34799      2.21173      2.76927        -0.019383     -0.422308     -0.020632
      3.47401      6.13373      3.31673         0.019383     -0.422308      0.020632
      3.07399      5.63227      0.27374        -0.019383      0.422308      0.020632
      0.20001      5.63227      3.31673         0.019383      0.422308      0.020632
 -----------------------------------------------------------------------------------
    total drift:                               -0.000759      0.003846      0.000736


--------------------------------------------------------------------------------------------------------



  FREE ENERGIE OF THE ION-ELECTRON SYSTEM (eV)
  ---------------------------------------------------
  free  energy   TOTEN  =      -167.93682921 eV

  energy  without entropy=     -167.93682921  energy(sigma->0) =     -167.93682921



--------------------------------------------------------------------------------------------------------


    POTLOK:  cpu time      0.6673: real time      0.6675


--------------------------------------------------------------------------------------------------------


 stress matrix after NEB project (eV)
      0.00000      0.00000      0.00000
      0.00000      0.00000      0.00000
      0.00000      0.00000      0.00000
  FORCES: max atom, RMS     0.423255    0.267882
  FORCE total and by dimension    1.515368    0.422308
  Stress total and by dimension    0.000000    0.000000
     LOOP+:  cpu time     72.5396: real time     72.8627
    4ORBIT:  cpu time      0.0000: real time      0.0000

 total amount of memory used by VASP MPI-rank0    41490. kBytes
=======================================================================

   base      :      30000. kBytes
   nonl-proj :       1460. kBytes
   fftplans  :       1056. kBytes
   grid      :       1825. kBytes
   one-center:          3. kBytes
   wavefun   :       7146. kBytes

  
  
 General timing and accounting informations for this job:
 ========================================================
  
                  Total CPU time used (sec):       95.188
                            User time (sec):       92.761
                          System time (sec):        2.427
                         Elapsed time (sec):      100.866
  
                   Maximum memory used (kb):      294672.
                   Average memory used (kb):          N/A
  
                          Minor page faults:       145157
                          Major page faults:          268
                 Voluntary context switches:         5901
