 vasp.6.4.1 05Apr23 (build Jun  6 2023 14:36:51) complex                         
 executed on        HPECrayEX_GCC date 2024.08.20  14:31:24
 running  256 mpi-ranks, with    1 threads/rank, on    2 nodes
 distrk:  each k-point on  256 cores,    1 groups
 distr:  one band on NCORE=  64 cores,    4 groups


--------------------------------------------------------------------------------------------------------


 INCAR:
   NPAR = 4
   ALGO = Conjugate
   ISMEAR = 0
   SIGMA = 0.01
   PREC = Accurate
   EDIFF = 1E-7
   ENCUT = 1000
   ISIF = 0
   GGA = ML
   LUSE_VDW = .TRUE.
   ZAB_VDW = -1.8867
   AGGAC = 0.0000
   LASPH = .TRUE.
   SYMPREC = 1E-7
   LWAVE = .FALSE.
   LCHARGE = .FALSE.

 POTCAR:    PAW_PBE C_h 06Feb2004                 
 POTCAR:    PAW_PBE H_h 06Feb2004                 
 POTCAR:    PAW_PBE O_h 06Feb2004                 
 -----------------------------------------------------------------------------
|                                                                             |
|               ----> ADVICE to this user running VASP <----                  |
|                                                                             |
|     You have switched on vdW-DFT.                                           |
|     This routine was written and supplied by Jiri Klimes. We recommend      |
|     that you carefully read and cite the following publications:            |
|       J. Klimes, D.R. Bowler, A. Michelides                                 |
|          J. Phys.: Cond Matt. 22 022201 (2010)                              |
|       J. Klimes, D.R. Bowler, A. Michelides                                 |
|          Phys. Rev. B. 83, 195131 (2011)                                    |
|     and references therein.                                                 |
|                                                                             |
 -----------------------------------------------------------------------------

 POTCAR:    PAW_PBE C_h 06Feb2004                 
   VRHFIN =C: s2p2                                                                                  
   LEXCH  = PE                                                                                      
   EATOM  =   147.1560 eV,   10.8157 Ry                                                             
                                                                                                    
   TITEL  = PAW_PBE C_h 06Feb2004                                                                   
   LULTRA =        F    use ultrasoft PP ?                                                          
   IUNSCR =        1    unscreen: 0-lin 1-nonlin 2-no                                               
   RPACOR =    0.800    partial core radius                                                         
   POMASS =   12.011; ZVAL   =    4.000    mass and valenz                                          
   RCORE  =    1.100    outmost cutoff radius                                                       
   RWIGS  =    1.630; RWIGS  =    0.863    wigner-seitz radius (au A)                               
   ENMAX  =  700.000; ENMIN  =  500.000 eV                                                          
   ICORE  =        2    local potential                                                             
   LCOR   =        T    correct aug charges                                                         
   LPAW   =        T    paw PP                                                                      
   EAUG   =  946.768                                                                                
   DEXC   =    0.000                                                                                
   RMAX   =    1.128    core radius for proj-oper                                                   
   RAUG   =    1.300    factor for augmentation sphere                                              
   RDEP   =    1.162    radius for radial grids                                                     
   RDEPT  =    1.088    core radius for aug-charge                                                  
                                                                                                    
   Atomic configuration                                                                             
    4 entries                                                                                       
     n  l   j            E        occ.                                                              
     1  0  0.50      -273.3789   2.0000                                                             
     2  0  0.50       -13.7508   2.0000                                                             
     2  1  0.50        -5.2854   2.0000                                                             
     3  2  1.50        -5.4423   0.0000                                                             
   Description                                                                                      
     l       E           TYP  RCUT    TYP  RCUT                                                     
     0    -13.7508458     23  1.100                                                                 
     0     -8.2022199     23  1.100                                                                 
     1     -5.2854383     23  1.100                                                                 
     1      1.1560700     23  1.100                                                                 
     2     -5.4423304      7  1.100                                                                 
  local pseudopotential read in
  partial core-charges read in
  partial kinetic energy density read in
  atomic valenz-charges read in
  non local Contribution for L=           0  read in
    real space projection operators read in
  non local Contribution for L=           0  read in
    real space projection operators read in
  non local Contribution for L=           1  read in
    real space projection operators read in
  non local Contribution for L=           1  read in
    real space projection operators read in
    PAW grid and wavefunctions read in

   number of l-projection  operators is LMAX  =           4
   number of lm-projection operators is LMMAX =           8

 POTCAR:    PAW_PBE H_h 06Feb2004                 
   VRHFIN =H: ultrasoft test                                                                        
   LEXCH  = PE                                                                                      
   EATOM  =    12.4884 eV,    0.9179 Ry                                                             
                                                                                                    
   TITEL  = PAW_PBE H_h 06Feb2004                                                                   
   LULTRA =        F    use ultrasoft PP ?                                                          
   IUNSCR =        0    unscreen: 0-lin 1-nonlin 2-no                                               
   RPACOR =    0.000    partial core radius                                                         
   POMASS =    1.000; ZVAL   =    1.000    mass and valenz                                          
   RCORE  =    0.800    outmost cutoff radius                                                       
   RWIGS  =    0.700; RWIGS  =    0.370    wigner-seitz radius (au A)                               
   ENMAX  =  700.000; ENMIN  =  350.000 eV                                                          
   RCLOC  =    0.701    cutoff for local pot                                                        
   LCOR   =        T    correct aug charges                                                         
   LPAW   =        T    paw PP                                                                      
   EAUG   = 1000.000                                                                                
   RMAX   =    0.819    core radius for proj-oper                                                   
   RAUG   =    1.000    factor for augmentation sphere                                              
   RDEP   =    0.817    radius for radial grids                                                     
   RDEPT  =    0.817    core radius for aug-charge                                                  
                                                                                                    
   Atomic configuration                                                                             
    2 entries                                                                                       
     n  l   j            E        occ.                                                              
     1  0  0.50        -6.4927   1.0000                                                             
     2  1  0.50        -3.4015   0.0000                                                             
   Description                                                                                      
     l       E           TYP  RCUT    TYP  RCUT                                                     
     0     -6.4927493     23  0.800                                                                 
     0      6.8029130     23  0.800                                                                 
     1     -6.8029130     23  0.800                                                                 
  local pseudopotential read in
  atomic valenz-charges read in
  non local Contribution for L=           0  read in
    real space projection operators read in
  non local Contribution for L=           0  read in
    real space projection operators read in
  non local Contribution for L=           1  read in
    real space projection operators read in
    PAW grid and wavefunctions read in

   number of l-projection  operators is LMAX  =           3
   number of lm-projection operators is LMMAX =           5

 POTCAR:    PAW_PBE O_h 06Feb2004                 
   VRHFIN =O: s2p4                                                                                  
   LEXCH  = PE                                                                                      
   EATOM  =   432.3788 eV,   31.7789 Ry                                                             
                                                                                                    
   TITEL  = PAW_PBE O_h 06Feb2004                                                                   
   LULTRA =        F    use ultrasoft PP ?                                                          
   IUNSCR =        1    unscreen: 0-lin 1-nonlin 2-no                                               
   RPACOR =    0.800    partial core radius                                                         
   POMASS =   16.000; ZVAL   =    6.000    mass and valenz                                          
   RCORE  =    1.100    outmost cutoff radius                                                       
   RWIGS  =    1.400; RWIGS  =    0.741    wigner-seitz radius (au A)                               
   ENMAX  =  700.000; ENMIN  =  500.000 eV                                                          
   ICORE  =        2    local potential                                                             
   LCOR   =        T    correct aug charges                                                         
   LPAW   =        T    paw PP                                                                      
   EAUG   =  888.804                                                                                
   DEXC   =    0.000                                                                                
   RMAX   =    1.128    core radius for proj-oper                                                   
   RAUG   =    1.300    factor for augmentation sphere                                              
   RDEP   =    1.125    radius for radial grids                                                     
   RDEPT  =    1.088    core radius for aug-charge                                                  
                                                                                                    
   Atomic configuration                                                                             
    4 entries                                                                                       
     n  l   j            E        occ.                                                              
     1  0  0.50      -514.6923   2.0000                                                             
     2  0  0.50       -23.9615   2.0000                                                             
     2  1  0.50        -9.0305   4.0000                                                             
     3  2  1.50        -9.5241   0.0000                                                             
   Description                                                                                      
     l       E           TYP  RCUT    TYP  RCUT                                                     
     0    -23.9615319     23  1.100                                                                 
     0    -25.3221145     23  1.100                                                                 
     1     -9.0304911     23  1.100                                                                 
     1     -5.4802209     23  1.100                                                                 
     2     -9.5240782      7  1.100                                                                 
  local pseudopotential read in
  partial core-charges read in
  partial kinetic energy density read in
  atomic valenz-charges read in
  non local Contribution for L=           0  read in
    real space projection operators read in
  non local Contribution for L=           0  read in
    real space projection operators read in
  non local Contribution for L=           1  read in
    real space projection operators read in
  non local Contribution for L=           1  read in
    real space projection operators read in
    PAW grid and wavefunctions read in

   number of l-projection  operators is LMAX  =           4
   number of lm-projection operators is LMMAX =           8

 -----------------------------------------------------------------------------
|                                                                             |
|               ----> ADVICE to this user running VASP <----                  |
|                                                                             |
|     You have a (more or less) 'large supercell' and for larger cells it     |
|     might be more efficient to use real-space projection operators.         |
|     Therefore, try LREAL= Auto in the INCAR file.                           |
|     Mind: For very accurate calculation, you might also keep the            |
|     reciprocal projection scheme (i.e. LREAL=.FALSE.).                      |
|                                                                             |
 -----------------------------------------------------------------------------

 -----------------------------------------------------------------------------
|                                                                             |
|               ----> ADVICE to this user running VASP <----                  |
|                                                                             |
|     You enforced a specific xc type in the INCAR file but a different       |
|     type was found in the POTCAR file.                                      |
|     I HOPE YOU KNOW WHAT YOU ARE DOING!                                     |
|                                                                             |
 -----------------------------------------------------------------------------

  PAW_PBE C_h 06Feb2004                 :
 energy of atom  1       EATOM= -147.1560
 kinetic energy error for atom=    0.0031 (will be added to EATOM!!)
  PAW_PBE H_h 06Feb2004                 :
 energy of atom  2       EATOM=  -12.4884
 kinetic energy error for atom=    0.0006 (will be added to EATOM!!)
  PAW_PBE O_h 06Feb2004                 :
 energy of atom  3       EATOM= -432.3788
 kinetic energy error for atom=    0.0171 (will be added to EATOM!!)


 POSCAR:  C  H  O
  positions in cartesian coordinates
  No initial velocities read in
 exchange correlation table for  LEXCH =       44
   RHO(1)=    0.500       N(1)  =     2000
   RHO(2)=  100.500       N(2)  =     4000

 VTST: version 4.1, (05/19/21)

 CHAIN: initializing optimizer
 
 OPT: Using VASP Dynamics algorithm
 CHAIN: Read ICHAIN            0

 POSCAR:  C  H  O
  positions in cartesian coordinates
  No initial velocities read in



--------------------------------------------------------------------------------------------------------


 ion  position               nearest neighbor table
   1  0.057  0.055  0.915-  17 1.22  18 1.31   2 1.55
   2  0.943  0.945  0.085-  19 1.22  20 1.31   1 1.55
   3  0.443  0.055  0.415-  21 1.22  27 1.31   6 1.55
   4  0.557  0.445  0.915-  22 1.22  28 1.31   7 1.55
   5  0.943  0.445  0.415-  23 1.22  29 1.31   8 1.55
   6  0.557  0.945  0.585-  24 1.22  30 1.31   3 1.55
   7  0.443  0.555  0.085-  25 1.22  31 1.31   4 1.55
   8  0.057  0.555  0.585-  26 1.22  32 1.31   5 1.55
   9  0.096  0.296  0.844-  18 1.01
  10  0.904  0.704  0.156-  20 1.01
  11  0.404  0.296  0.344-  27 1.01
  12  0.596  0.204  0.844-  28 1.01
  13  0.904  0.204  0.344-  29 1.01
  14  0.596  0.704  0.656-  30 1.01
  15  0.404  0.796  0.156-  31 1.01
  16  0.096  0.796  0.656-  32 1.01
  17  0.157  0.993  0.765-   1 1.22
  18  0.031  0.218  0.955-   9 1.01   1 1.31
  19  0.843  0.007  0.235-   2 1.22
  20  0.969  0.782  0.045-  10 1.01   2 1.31
  21  0.343  0.993  0.265-   3 1.22
  22  0.657  0.507  0.765-   4 1.22
  23  0.843  0.507  0.265-   5 1.22
  24  0.657  0.007  0.735-   6 1.22
  25  0.343  0.493  0.235-   7 1.22
  26  0.157  0.493  0.735-   8 1.22
  27  0.469  0.218  0.455-  11 1.01   3 1.31
  28  0.531  0.282  0.955-  12 1.01   4 1.31
  29  0.969  0.282  0.455-  13 1.01   5 1.31
  30  0.531  0.782  0.545-  14 1.01   6 1.31
  31  0.469  0.718  0.045-  15 1.01   7 1.31
  32  0.031  0.718  0.545-  16 1.01   8 1.31

  LATTYP: Found a simple orthorhombic cell.
 ALAT       =     6.0860000000
 B/A-ratio  =     1.0759119290
 C/A-ratio  =     1.2888596779
  
  Lattice vectors:
  
 A1 = (   0.0000000000,   0.0000000000,   6.0860000000)
 A2 = (   6.5480000000,   0.0000000000,   0.0000000000)
 A3 = (   0.0000000000,   7.8440000000,   0.0000000000)


Analysis of symmetry for initial positions (statically):
=====================================================================
 Subroutine PRICEL returns:
 Original cell was already a primitive cell.
 

 Routine SETGRP: Setting up the symmetry group for a 
 simple orthorhombic supercell.


 Subroutine GETGRP returns: Found  2 space group operations
 (whereof  2 operations were pure point group operations)
 out of a pool of  8 trial point group operations.


The static configuration has the point symmetry S_2 .


Analysis of symmetry for dynamics (positions and initial velocities):
=====================================================================
 Subroutine PRICEL returns:
 Original cell was already a primitive cell.
 

 Routine SETGRP: Setting up the symmetry group for a 
 simple orthorhombic supercell.


 Subroutine GETGRP returns: Found  2 space group operations
 (whereof  2 operations were pure point group operations)
 out of a pool of  8 trial point group operations.


The dynamic configuration has the point symmetry S_2 .


 Subroutine INISYM returns: Found  2 space group operations
 (whereof  2 operations are pure point group operations),
 and found     1 'primitive' translations


----------------------------------------------------------------------------------------

                                     Primitive cell                                     

  volume of cell :     312.5922

  direct lattice vectors                    reciprocal lattice vectors
     6.548000000  0.000000000  0.000000000     0.152718387  0.000000000  0.000000000
     0.000000000  7.844000000  0.000000000     0.000000000  0.127485977  0.000000000
     0.000000000  0.000000000  6.086000000     0.000000000  0.000000000  0.164311535

  length of vectors
     6.548000000  7.844000000  6.086000000     0.152718387  0.127485977  0.164311535

  position of ions in fractional coordinates (direct lattice)
     0.057396641  0.055115644  0.914745396
     0.942603359  0.944884356  0.085254604
     0.442603369  0.055115663  0.414745392
     0.557396653  0.444884317  0.914745444
     0.942603382  0.444884330  0.414745407
     0.557396631  0.944884337  0.585254608
     0.442603347  0.555115683  0.085254556
     0.057396618  0.555115670  0.585254593
     0.096234730  0.295567034  0.843783748
     0.903765270  0.704432966  0.156216252
     0.403765238  0.295567045  0.343783845
     0.596234803  0.204432954  0.843783826
     0.903765242  0.204432941  0.343783858
     0.596234762  0.704432955  0.656216155
     0.403765197  0.795567046  0.156216174
     0.096234758  0.795567059  0.656216142
     0.157124606  0.992857540  0.764594901
     0.030544588  0.218035634  0.955022064
     0.842875394  0.007142460  0.235405099
     0.969455412  0.781964365  0.044977936
     0.342875508  0.992857631  0.264594851
     0.657124617  0.507142400  0.764594939
     0.842875492  0.507142430  0.264594884
     0.657124492  0.007142369  0.735405149
     0.342875384  0.492857600  0.235405061
     0.157124508  0.492857570  0.735405116
     0.469455363  0.218035684  0.455022222
     0.530544586  0.281964313  0.955022171
     0.969455403  0.281964334  0.455022213
     0.530544637  0.781964316  0.544977778
     0.469455414  0.718035687  0.044977829
     0.030544597  0.718035666  0.544977787

  ion indices of the primitive-cell ions
   primitive index   ion index
                 1           1
                 2           2
                 3           3
                 4           4
                 5           5
                 6           6
                 7           7
                 8           8
                 9           9
                10          10
                11          11
                12          12
                13          13
                14          14
                15          15
                16          16
                17          17
                18          18
                19          19
                20          20
                21          21
                22          22
                23          23
                24          24
                25          25
                26          26
                27          27
                28          28
                29          29
                30          30
                31          31
                32          32

----------------------------------------------------------------------------------------



 KPOINTS: auto                                    

Automatic generation of k-mesh.
 Grid dimensions read from file:
 generate k-points for:    4    3    4

 Generating k-lattice:

  Cartesian coordinates                     Fractional coordinates (reciprocal lattice)
     0.038179597  0.000000000  0.000000000     0.250000000  0.000000000  0.000000000
     0.000000000  0.042495326  0.000000000     0.000000000  0.333333333  0.000000000
     0.000000000  0.000000000  0.041077884     0.000000000  0.000000000  0.250000000

  Length of vectors
     0.038179597  0.042495326  0.041077884

  Shift w.r.t. Gamma in fractional coordinates (k-lattice)
     0.000000000  0.000000000  0.000000000

 
 Subroutine IBZKPT returns following result:
 ===========================================
 
 Found     26 irreducible k-points:
 
 Following reciprocal coordinates:
            Coordinates               Weight
  0.000000  0.000000  0.000000      1.000000
  0.250000  0.000000  0.000000      2.000000
  0.500000  0.000000  0.000000      1.000000
  0.000000  0.333333  0.000000      2.000000
  0.250000  0.333333  0.000000      2.000000
  0.250000 -0.333333  0.000000      2.000000
  0.500000  0.333333  0.000000      2.000000
  0.000000  0.000000  0.250000      2.000000
  0.250000  0.000000  0.250000      2.000000
 -0.250000  0.000000  0.250000      2.000000
  0.500000  0.000000  0.250000      2.000000
  0.000000  0.333333  0.250000      2.000000
  0.000000 -0.333333  0.250000      2.000000
  0.250000  0.333333  0.250000      2.000000
 -0.250000 -0.333333  0.250000      2.000000
  0.250000 -0.333333 -0.250000      2.000000
 -0.250000  0.333333 -0.250000      2.000000
  0.500000  0.333333  0.250000      2.000000
  0.500000 -0.333333  0.250000      2.000000
  0.000000  0.000000  0.500000      1.000000
  0.250000  0.000000  0.500000      2.000000
  0.500000  0.000000  0.500000      1.000000
  0.000000  0.333333  0.500000      2.000000
  0.250000  0.333333  0.500000      2.000000
  0.250000 -0.333333  0.500000      2.000000
  0.500000  0.333333  0.500000      2.000000
 
 Following cartesian coordinates:
            Coordinates               Weight
  0.000000  0.000000  0.000000      1.000000
  0.038180  0.000000  0.000000      2.000000
  0.076359  0.000000  0.000000      1.000000
  0.000000  0.042495  0.000000      2.000000
  0.038180  0.042495  0.000000      2.000000
  0.038180 -0.042495  0.000000      2.000000
  0.076359  0.042495  0.000000      2.000000
  0.000000  0.000000  0.041078      2.000000
  0.038180  0.000000  0.041078      2.000000
 -0.038180  0.000000  0.041078      2.000000
  0.076359  0.000000  0.041078      2.000000
  0.000000  0.042495  0.041078      2.000000
  0.000000 -0.042495  0.041078      2.000000
  0.038180  0.042495  0.041078      2.000000
 -0.038180 -0.042495  0.041078      2.000000
  0.038180 -0.042495 -0.041078      2.000000
 -0.038180  0.042495 -0.041078      2.000000
  0.076359  0.042495  0.041078      2.000000
  0.076359 -0.042495  0.041078      2.000000
  0.000000  0.000000  0.082156      1.000000
  0.038180  0.000000  0.082156      2.000000
  0.076359  0.000000  0.082156      1.000000
  0.000000  0.042495  0.082156      2.000000
  0.038180  0.042495  0.082156      2.000000
  0.038180 -0.042495  0.082156      2.000000
  0.076359  0.042495  0.082156      2.000000
 


--------------------------------------------------------------------------------------------------------




 Dimension of arrays:
   k-points           NKPTS =     26   k-points in BZ     NKDIM =     26   number of bands    NBANDS=     88
   number of dos      NEDOS =    301   number of ions     NIONS =     32
   non local maximal  LDIM  =      4   non local SUM 2l+1 LMDIM =      8
   total plane-waves  NPLWV = 376320
   max r-space proj   IRMAX =      1   max aug-charges    IRDMAX=   8978
   dimension x,y,z NGX =    70 NGY =   84 NGZ =   64
   dimension x,y,z NGXF=   140 NGYF=  168 NGZF=  128
   support grid    NGXF=   140 NGYF=  168 NGZF=  128
   ions per type =               8   8  16
   NGX,Y,Z   is equivalent  to a cutoff of  17.77, 17.80, 17.48 a.u.
   NGXF,Y,Z  is equivalent  to a cutoff of  35.54, 35.61, 34.96 a.u.

 SYSTEM =  unknown system                          
 POSCAR =   C  H  O                                

 Startparameter for this run:
   NWRITE =      2    write-flag & timer
   PREC   = accura    normal or accurate (medium, high low for compatibility)
   ISTART =      0    job   : 0-new  1-cont  2-samecut
   ICHARG =      2    charge: 1-file 2-atom 10-const
   ISPIN  =      1    spin polarized calculation?
   LNONCOLLINEAR =      F non collinear calculations
   LSORBIT =      F    spin-orbit coupling
   INIWAV =      1    electr: 0-lowe 1-rand  2-diag
   LASPH  =      T    aspherical Exc in radial PAW
 Electronic Relaxation 1
   ENCUT  = 1000.0 eV  73.50 Ry    8.57 a.u.  16.88 20.23 15.69*2*pi/ulx,y,z
   ENINI  = 1000.0     initial cutoff
   ENAUG  = 1000.0 eV  augmentation charge cutoff
   NELM   =     60;   NELMIN=  2; NELMDL= -5     # of ELM steps 
   EDIFF  = 0.1E-06   stopping-criterion for ELM
   LREAL  =      F    real-space projection
   NLSPLINE    = F    spline interpolate recip. space projectors
   LCOMPAT=      F    compatible to vasp.4.4
   GGA_COMPAT  = T    GGA compatible to vasp.4.4-vasp.4.6
   LMAXPAW     = -100 max onsite density
   LMAXMIX     =    2 max onsite mixed and CHGCAR
   VOSKOWN=      0    Vosko Wilk Nusair interpolation
   ROPT   =    0.00000   0.00000   0.00000
 Ionic relaxation
   EDIFFG = 0.1E-05   stopping-criterion for IOM
   NSW    =      0    number of steps for IOM
   NBLOCK =      1;   KBLOCK =      1    inner block; outer block 
   IBRION =     -1    ionic relax: 0-MD 1-quasi-New 2-CG
   NFREE  =      0    steps in history (QN), initial steepest desc. (CG)
   ISIF   =      0    stress and relaxation
   IWAVPR =     10    prediction:  0-non 1-charg 2-wave 3-comb
   ISYM   =      2    0-nonsym 1-usesym 2-fastsym
   LCORR  =      T    Harris-Foulkes like correction to forces

   POTIM  = 0.5000    time-step for ionic-motion
   TEIN   =    0.0    initial temperature
   TEBEG  =    0.0;   TEEND  =   0.0 temperature during run
   SMASS  =  -3.00    Nose mass-parameter (am)
   estimated Nose-frequenzy (Omega)   =  0.10E-29 period in steps = 0.13E+47 mass=  -0.980E-27a.u.
   SCALEE = 1.0000    scale energy and forces
   NPACO  =    256;   APACO  = 10.0  distance and # of slots for P.C.
   PSTRESS=    0.0 pullay stress

  Mass of Ions in am
   POMASS =  12.01  1.00 16.00
  Ionic Valenz
   ZVAL   =   4.00  1.00  6.00
  Atomic Wigner-Seitz radii
   RWIGS  =  -1.00 -1.00 -1.00
  virtual crystal weights 
   VCA    =   1.00  1.00  1.00
   NELECT =     136.0000    total number of electrons
   NUPDOWN=      -1.0000    fix difference up-down

 DOS related values:
   EMIN   =  10.00;   EMAX   =-10.00  energy-range for DOS
   EFERMI =   0.00;   METHOD = LEGACY      
   ISMEAR =     0;   SIGMA  =   0.01  broadening in eV -4-tet -1-fermi 0-gaus

 Electronic relaxation 2 (details)
   IALGO  =     58    algorithm
   LDIAG  =      T    sub-space diagonalisation (order eigenvalues)
   LSUBROT=      F    optimize rotation matrix (better conditioning)
   TURBO    =      0    0=normal 1=particle mesh
   IRESTART =      0    0=no restart 2=restart with 2 vectors
   NREBOOT  =      0    no. of reboots
   NMIN     =      0    reboot dimension
   EREF     =   0.00    reference energy to select bands
   IMIX   =      4    mixing-type and parameters
     AMIX     =   0.40;   BMIX     =  1.00
     AMIX_MAG =   1.60;   BMIX_MAG =  1.00
     AMIN     =   0.10
     WC   =   100.;   INIMIX=   1;  MIXPRE=   1;  MAXMIX= -45

 Intra band minimization:
   WEIMIN = 0.0000     energy-eigenvalue tresh-hold
   EBREAK =  0.28E-09  absolut break condition
   DEPER  =   0.30     relativ break condition  

   TIME   =   0.40     timestep for ELM

  volume/ion in A,a.u.               =       9.77        65.92
  Fermi-wavevector in a.u.,A,eV,Ry     =   1.240495  2.344196 20.937029  1.538828
  Thomas-Fermi vector in A             =   2.374933

 Write flags
   LWAVE        =      F    write WAVECAR
   LDOWNSAMPLE  =      F    k-point downsampling of WAVECAR
   LCHARG       =      T    write CHGCAR
   LVTOT        =      F    write LOCPOT, total local potential
   LVHAR        =      F    write LOCPOT, Hartree potential only
   LELF         =      F    write electronic localiz. function (ELF)
   LORBIT       =      0    0 simple, 1 ext, 2 COOP (PROOUT), +10 PAW based schemes


 Dipole corrections
   LMONO  =      F    monopole corrections only (constant potential shift)
   LDIPOL =      F    correct potential (dipole corrections)
   IDIPOL =      0    1-x, 2-y, 3-z, 4-all directions 
   EPSILON=  1.0000000 bulk dielectric constant

 Exchange correlation treatment:
   GGA     =    ML    GGA type
   LEXCH   =    44    internal setting for exchange type
   LIBXC   =     F    Libxc                    
   VOSKOWN =     0    Vosko Wilk Nusair interpolation
   LHFCALC =     F    Hartree Fock is set to
   LHFONE  =     F    Hartree Fock one center treatment
   AEXX    =    0.0000 exact exchange contribution

 vdW DFT:
   LUSE_VDW   =     T    switch on vdW DFT
   IVDW_NL    =     1    kernel type
   LSPIN_VDW  =     F    use spin-polarized vdW DFT
   Zab_VDW    =******    correlation parameter
   PARAM1     =0.1234
   PARAM2     =1.0000
   PARAM3     =0.0000
   -- rVV10 --
   BPARAM     = 6.3000
   CPARAM     = 0.0093

 Linear response parameters
   LEPSILON=     F    determine dielectric tensor
   LRPA    =     F    only Hartree local field effects (RPA)
   LNABLA  =     F    use nabla operator in PAW spheres
   LVEL    =     F    velocity operator in full k-point grid
   CSHIFT  =0.1000    complex shift for real part using Kramers Kronig
   OMEGAMAX=  -1.0    maximum frequency
   DEG_THRESHOLD= 0.2000000E-02 threshold for treating states as degnerate
   RTIME   =   -0.100 relaxation time in fs
  (WPLASMAI=    0.000 imaginary part of plasma frequency in eV, 0.658/RTIME)
   DFIELD  = 0.0000000 0.0000000 0.0000000 field for delta impulse in time

  Optional k-point grid parameters
   LKPOINTS_OPT  =     F    use optional k-point grid
   KPOINTS_OPT_MODE=     1    mode for optional k-point grid

 Orbital magnetization related:
   ORBITALMAG=     F  switch on orbital magnetization
   LCHIMAG   =     F  perturbation theory with respect to B field
   DQ        =  0.001000  dq finite difference perturbation B field
   LLRAUG    =     F  two centre corrections for induced B field
   LBONE     =     F  B-component reconstruction in AE one-centre
   LVGVCALC  =     T  calculate vGv susceptibility
   LVGVAPPL  =     F  apply vGv susceptibility instead of pGv for G=0

 Random number generation:
   RANDOM_GENERATOR = DEFAULT
   PCG_SEED         = not used


--------------------------------------------------------------------------------------------------------


 Static calculation
 charge density and potential will be updated during run
 non-spin polarized calculation
 Conjugate gradient for all bands (Freysoldt, et al. PRB 79, 241103 (2009))
 preconditioned conjugated gradient                                        
 perform sub-space diagonalisation
    before iterative eigenvector-optimisation
 modified Broyden-mixing scheme, WC =      100.0
 initial mixing is a Kerker type mixing with AMIX =  0.4000 and BMIX =      1.0000
 Hartree-type preconditioning will be used
 using additional bands           20
 reciprocal scheme for non local part
 use partial core corrections
 no Harris-corrections to forces 
 use gradient corrections 
 use of overlap-Matrix (Vanderbilt PP)
 Gauss-broadening in eV      SIGMA  =   0.01


--------------------------------------------------------------------------------------------------------


  energy-cutoff  :     1000.00
  volume of cell :      312.59
      direct lattice vectors                 reciprocal lattice vectors
     6.548000000  0.000000000  0.000000000     0.152718387  0.000000000  0.000000000
     0.000000000  7.844000000  0.000000000     0.000000000  0.127485977  0.000000000
     0.000000000  0.000000000  6.086000000     0.000000000  0.000000000  0.164311535

  length of vectors
     6.548000000  7.844000000  6.086000000     0.152718387  0.127485977  0.164311535



 k-points in units of 2pi/SCALE and weight: auto                                    
   0.00000000  0.00000000  0.00000000       0.021
   0.03817960  0.00000000  0.00000000       0.042
   0.07635919  0.00000000  0.00000000       0.021
   0.00000000  0.04249533  0.00000000       0.042
   0.03817960  0.04249533  0.00000000       0.042
   0.03817960 -0.04249533  0.00000000       0.042
   0.07635919  0.04249533  0.00000000       0.042
   0.00000000  0.00000000  0.04107788       0.042
   0.03817960  0.00000000  0.04107788       0.042
  -0.03817960  0.00000000  0.04107788       0.042
   0.07635919  0.00000000  0.04107788       0.042
   0.00000000  0.04249533  0.04107788       0.042
   0.00000000 -0.04249533  0.04107788       0.042
   0.03817960  0.04249533  0.04107788       0.042
  -0.03817960 -0.04249533  0.04107788       0.042
   0.03817960 -0.04249533 -0.04107788       0.042
  -0.03817960  0.04249533 -0.04107788       0.042
   0.07635919  0.04249533  0.04107788       0.042
   0.07635919 -0.04249533  0.04107788       0.042
   0.00000000  0.00000000  0.08215577       0.021
   0.03817960  0.00000000  0.08215577       0.042
   0.07635919  0.00000000  0.08215577       0.021
   0.00000000  0.04249533  0.08215577       0.042
   0.03817960  0.04249533  0.08215577       0.042
   0.03817960 -0.04249533  0.08215577       0.042
   0.07635919  0.04249533  0.08215577       0.042

 k-points in reciprocal lattice and weights: auto                                    
   0.00000000  0.00000000  0.00000000       0.021
   0.25000000  0.00000000  0.00000000       0.042
   0.50000000  0.00000000  0.00000000       0.021
   0.00000000  0.33333333  0.00000000       0.042
   0.25000000  0.33333333  0.00000000       0.042
   0.25000000 -0.33333333  0.00000000       0.042
   0.50000000  0.33333333  0.00000000       0.042
   0.00000000  0.00000000  0.25000000       0.042
   0.25000000  0.00000000  0.25000000       0.042
  -0.25000000  0.00000000  0.25000000       0.042
   0.50000000  0.00000000  0.25000000       0.042
   0.00000000  0.33333333  0.25000000       0.042
   0.00000000 -0.33333333  0.25000000       0.042
   0.25000000  0.33333333  0.25000000       0.042
  -0.25000000 -0.33333333  0.25000000       0.042
   0.25000000 -0.33333333 -0.25000000       0.042
  -0.25000000  0.33333333 -0.25000000       0.042
   0.50000000  0.33333333  0.25000000       0.042
   0.50000000 -0.33333333  0.25000000       0.042
   0.00000000  0.00000000  0.50000000       0.021
   0.25000000  0.00000000  0.50000000       0.042
   0.50000000  0.00000000  0.50000000       0.021
   0.00000000  0.33333333  0.50000000       0.042
   0.25000000  0.33333333  0.50000000       0.042
   0.25000000 -0.33333333  0.50000000       0.042
   0.50000000  0.33333333  0.50000000       0.042

 position of ions in fractional coordinates (direct lattice) 
   0.05739664  0.05511564  0.91474540
   0.94260336  0.94488436  0.08525460
   0.44260337  0.05511566  0.41474539
   0.55739665  0.44488432  0.91474544
   0.94260338  0.44488433  0.41474541
   0.55739663  0.94488434  0.58525461
   0.44260335  0.55511568  0.08525456
   0.05739662  0.55511567  0.58525459
   0.09623473  0.29556703  0.84378375
   0.90376527  0.70443297  0.15621625
   0.40376524  0.29556705  0.34378384
   0.59623480  0.20443295  0.84378383
   0.90376524  0.20443294  0.34378386
   0.59623476  0.70443295  0.65621616
   0.40376520  0.79556705  0.15621617
   0.09623476  0.79556706  0.65621614
   0.15712461  0.99285754  0.76459490
   0.03054459  0.21803563  0.95502206
   0.84287539  0.00714246  0.23540510
   0.96945541  0.78196437  0.04497794
   0.34287551  0.99285763  0.26459485
   0.65712462  0.50714240  0.76459494
   0.84287549  0.50714243  0.26459488
   0.65712449  0.00714237  0.73540515
   0.34287538  0.49285760  0.23540506
   0.15712451  0.49285757  0.73540512
   0.46945536  0.21803568  0.45502222
   0.53054459  0.28196431  0.95502217
   0.96945540  0.28196433  0.45502221
   0.53054464  0.78196432  0.54497778
   0.46945541  0.71803569  0.04497783
   0.03054460  0.71803567  0.54497779

 position of ions in cartesian coordinates  (Angst):
   0.37583320  0.43232711  5.56714048
   6.17216680  7.41167289  0.51885952
   2.89816686  0.43232726  2.52414046
   3.64983329  3.48967259  5.56714077
   6.17216695  3.48967268  2.52414055
   3.64983314  7.41167274  3.56185954
   2.89816671  4.35432741  0.51885923
   0.37583305  4.35432732  3.56185945
   0.63014501  2.31842781  5.13526789
   5.91785499  5.52557219  0.95073211
   2.64385478  2.31842790  2.09226848
   3.90414549  1.60357209  5.13526836
   5.91785480  1.60357199  2.09226856
   3.90414522  5.52557210  3.99373152
   2.64385451  6.24042791  0.95073164
   0.63014520  6.24042801  3.99373144
   1.02885192  7.78797454  4.65332457
   0.20000596  1.71027152  5.81226428
   5.51914808  0.05602546  1.43267543
   6.34799404  6.13372848  0.27373572
   2.24514883  7.78797525  1.61032426
   4.30285199  3.97802499  4.65332480
   5.51914872  3.97802522  1.61032446
   4.30285117  0.05602475  4.47567574
   2.24514801  3.86597501  1.43267520
   1.02885128  3.86597478  4.47567554
   3.07399372  1.71027191  2.76926524
   3.47400595  2.21172807  5.81226494
   6.34799398  2.21172823  2.76926519
   3.47400628  6.13372809  3.31673476
   3.07399405  5.63227193  0.27373506
   0.20000602  5.63227177  3.31673481



--------------------------------------------------------------------------------------------------------


 k-point   1 :   0.0000 0.0000 0.0000  plane waves:   22451
 k-point   2 :   0.2500 0.0000 0.0000  plane waves:   22472
 k-point   3 :   0.5000 0.0000 0.0000  plane waves:   22518
 k-point   4 :   0.0000 0.3333 0.0000  plane waves:   22402
 k-point   5 :   0.2500 0.3333 0.0000  plane waves:   22470
 k-point   6 :   0.2500-0.3333 0.0000  plane waves:   22470
 k-point   7 :   0.5000 0.3333 0.0000  plane waves:   22446
 k-point   8 :   0.0000 0.0000 0.2500  plane waves:   22453
 k-point   9 :   0.2500 0.0000 0.2500  plane waves:   22440
 k-point  10 :  -0.2500 0.0000 0.2500  plane waves:   22440
 k-point  11 :   0.5000 0.0000 0.2500  plane waves:   22450
 k-point  12 :   0.0000 0.3333 0.2500  plane waves:   22428
 k-point  13 :   0.0000-0.3333 0.2500  plane waves:   22428
 k-point  14 :   0.2500 0.3333 0.2500  plane waves:   22438
 k-point  15 :  -0.2500-0.3333 0.2500  plane waves:   22438
 k-point  16 :   0.2500-0.3333-0.2500  plane waves:   22438
 k-point  17 :  -0.2500 0.3333-0.2500  plane waves:   22438
 k-point  18 :   0.5000 0.3333 0.2500  plane waves:   22476
 k-point  19 :   0.5000-0.3333 0.2500  plane waves:   22476
 k-point  20 :   0.0000 0.0000 0.5000  plane waves:   22396
 k-point  21 :   0.2500 0.0000 0.5000  plane waves:   22434
 k-point  22 :   0.5000 0.0000 0.5000  plane waves:   22432
 k-point  23 :   0.0000 0.3333 0.5000  plane waves:   22476
 k-point  24 :   0.2500 0.3333 0.5000  plane waves:   22452
 k-point  25 :   0.2500-0.3333 0.5000  plane waves:   22452
 k-point  26 :   0.5000 0.3333 0.5000  plane waves:   22440

 maximum and minimum number of plane-waves per node :       373      325

 maximum number of plane-waves:     22518
 maximum index in each direction: 
   IXMAX=   17   IYMAX=   20   IZMAX=   15
   IXMIN=  -17   IYMIN=  -20   IZMIN=  -16


 parallel 3D FFT for wavefunctions:
    minimum data exchange during FFTs selected (reduces bandwidth)
 parallel 3D FFT for charge:
    minimum data exchange during FFTs selected (reduces bandwidth)


 total amount of memory used by VASP MPI-rank0    45495. kBytes
=======================================================================

   base      :      30000. kBytes
   nonl-proj :       2069. kBytes
   fftplans  :       1056. kBytes
   grid      :       1825. kBytes
   one-center:          3. kBytes
   wavefun   :      10542. kBytes

     INWAV:  cpu time      0.0001: real time      0.0001
 Broyden mixing: mesh for mixing (old mesh)
   NGX = 33   NGY = 41   NGZ = 31
  (NGX  =140   NGY  =168   NGZ  =128)
  gives a total of  41943 points

 initial charge density was supplied:
 charge density of overlapping atoms calculated
 number of electron     136.0000000 magnetization 
 keeping initial charge density in first step


--------------------------------------------------------------------------------------------------------


 Maximum index for augmentation-charges          448 (set IRDMAX)


--------------------------------------------------------------------------------------------------------


 First call to EWALD:  gamma=   0.261
 Maximum number of real-space cells 3x 2x 3
 Maximum number of reciprocal cells 3x 3x 3

    FEWALD:  cpu time      0.0023: real time      0.0025


--------------------------------------- Ionic step        1  -------------------------------------------




--------------------------------------- Iteration      1(   1)  ---------------------------------------


vdW kernel read from vdw_kernel.bindat
  0.0000  0.2424  0.5071  0.7962  1.1119  1.4567  1.8333  2.2446  2.6937  3.1842
  3.7199  4.3049  4.9438  5.6415  6.4036  7.2358  8.1446  9.1372 10.2212 11.4050
 12.6979 14.1099 15.6519 17.3360 19.1751 21.1837 23.3773 25.7729 28.3892 31.2465
 34.3669 37.7748 41.4965 45.5611 50.0000

    POTLOK:  cpu time      1.2253: real time      1.2315
    SETDIJ:  cpu time      0.0709: real time      0.0712
    TRIAL :  cpu time      2.4221: real time      2.4259
    CORREC:  cpu time      0.0035: real time      0.0035
    --------------------------------------------
      LOOP:  cpu time      3.7320: real time      3.7425

 eigenvalue-minimisations  :  4576
 total energy-change (2. order) : 0.1529812E+04  (-0.1097315E+05)
 number of electron     136.0000000 magnetization 
 augmentation part      136.0000000 magnetization 

 Free energy of the ion-electron system (eV)
  ---------------------------------------------------
  alpha Z        PSCENC =       164.42561539
  Ewald energy   TEWEN  =     -4769.51426773
  -Hartree energ DENC   =     -2893.12250234
  -exchange      EXHF   =         0.00000000
  -V(xc)+E(xc)   XCENC  =       470.11251811
  PAW double counting   =      6498.43054837    -6483.54251146
  entropy T*S    EENTRO =        -0.00041281
  eigenvalues    EBANDS =       216.60168781
  atomic energy  EATOM  =      8326.42085552
  ---------------------------------------------------
  free energy    TOTEN  =      1529.81153086 eV

  energy without entropy =     1529.81194367  energy(sigma->0) =     1529.81173727


--------------------------------------------------------------------------------------------------------




--------------------------------------- Iteration      1(   2)  ---------------------------------------


    TRIAL :  cpu time      2.9637: real time      2.9650
    CORREC:  cpu time      0.0004: real time      0.0004
    --------------------------------------------
      LOOP:  cpu time      2.9855: real time      2.9944

 eigenvalue-minimisations  :  6224
 total energy-change (2. order) :-0.1494351E+04  (-0.1444894E+04)
 number of electron     136.0000000 magnetization 
 augmentation part      136.0000000 magnetization 

 Free energy of the ion-electron system (eV)
  ---------------------------------------------------
  alpha Z        PSCENC =       164.42561539
  Ewald energy   TEWEN  =     -4769.51426773
  -Hartree energ DENC   =     -2893.12250234
  -exchange      EXHF   =         0.00000000
  -V(xc)+E(xc)   XCENC  =       470.11251811
  PAW double counting   =      6498.43054837    -6483.54251146
  entropy T*S    EENTRO =        -0.00000000
  eigenvalues    EBANDS =     -1277.74924818
  atomic energy  EATOM  =      8326.42085552
  ---------------------------------------------------
  free energy    TOTEN  =        35.46100769 eV

  energy without entropy =       35.46100769  energy(sigma->0) =       35.46100769


--------------------------------------------------------------------------------------------------------




--------------------------------------- Iteration      1(   3)  ---------------------------------------


    TRIAL :  cpu time      2.7013: real time      2.7028
    CORREC:  cpu time      0.0004: real time      0.0004
    --------------------------------------------
      LOOP:  cpu time      2.7133: real time      2.7322

 eigenvalue-minimisations  :  5400
 total energy-change (2. order) :-0.2180171E+03  (-0.2152083E+03)
 number of electron     136.0000000 magnetization 
 augmentation part      136.0000000 magnetization 

 Free energy of the ion-electron system (eV)
  ---------------------------------------------------
  alpha Z        PSCENC =       164.42561539
  Ewald energy   TEWEN  =     -4769.51426773
  -Hartree energ DENC   =     -2893.12250234
  -exchange      EXHF   =         0.00000000
  -V(xc)+E(xc)   XCENC  =       470.11251811
  PAW double counting   =      6498.43054837    -6483.54251146
  entropy T*S    EENTRO =        -0.00000000
  eigenvalues    EBANDS =     -1495.76638853
  atomic energy  EATOM  =      8326.42085552
  ---------------------------------------------------
  free energy    TOTEN  =      -182.55613267 eV

  energy without entropy =     -182.55613267  energy(sigma->0) =     -182.55613267


--------------------------------------------------------------------------------------------------------




--------------------------------------- Iteration      1(   4)  ---------------------------------------


    TRIAL :  cpu time      2.8026: real time      2.8041
    CORREC:  cpu time      0.0004: real time      0.0004
    --------------------------------------------
      LOOP:  cpu time      2.8338: real time      2.8355

 eigenvalue-minimisations  :  5888
 total energy-change (2. order) :-0.7756134E+01  (-0.7713150E+01)
 number of electron     136.0000000 magnetization 
 augmentation part      136.0000000 magnetization 

 Free energy of the ion-electron system (eV)
  ---------------------------------------------------
  alpha Z        PSCENC =       164.42561539
  Ewald energy   TEWEN  =     -4769.51426773
  -Hartree energ DENC   =     -2893.12250234
  -exchange      EXHF   =         0.00000000
  -V(xc)+E(xc)   XCENC  =       470.11251811
  PAW double counting   =      6498.43054837    -6483.54251146
  entropy T*S    EENTRO =        -0.00000000
  eigenvalues    EBANDS =     -1503.52252274
  atomic energy  EATOM  =      8326.42085552
  ---------------------------------------------------
  free energy    TOTEN  =      -190.31226688 eV

  energy without entropy =     -190.31226688  energy(sigma->0) =     -190.31226688


--------------------------------------------------------------------------------------------------------




--------------------------------------- Iteration      1(   5)  ---------------------------------------


    TRIAL :  cpu time      2.7408: real time      2.7419
    CORREC:  cpu time      0.0004: real time      0.0004
    CHARGE:  cpu time      0.1711: real time      0.1726
    --------------------------------------------
      LOOP:  cpu time      2.9251: real time      2.9448

 eigenvalue-minimisations  :  5704
 total energy-change (2. order) :-0.2392401E+00  (-0.2390323E+00)
 number of electron     135.9999997 magnetization 
 augmentation part        1.4129503 magnetization 

 Free energy of the ion-electron system (eV)
  ---------------------------------------------------
  alpha Z        PSCENC =       164.42561539
  Ewald energy   TEWEN  =     -4769.51426773
  -Hartree energ DENC   =     -2893.12250234
  -exchange      EXHF   =         0.00000000
  -V(xc)+E(xc)   XCENC  =       470.11251811
  PAW double counting   =      6498.43054837    -6483.54251146
  entropy T*S    EENTRO =        -0.00000000
  eigenvalues    EBANDS =     -1503.76176282
  atomic energy  EATOM  =      8326.42085552
  ---------------------------------------------------
  free energy    TOTEN  =      -190.55150696 eV

  energy without entropy =     -190.55150696  energy(sigma->0) =     -190.55150696


--------------------------------------------------------------------------------------------------------




--------------------------------------- Iteration      1(   6)  ---------------------------------------


    POTLOK:  cpu time      0.5957: real time      0.5957
    SETDIJ:  cpu time      0.0669: real time      0.0669
    TRIAL :  cpu time      1.4401: real time      1.4413
    CORREC:  cpu time      1.5020: real time      1.5030
    CHARGE:  cpu time      0.1525: real time      0.1525
    --------------------------------------------
      LOOP:  cpu time      3.7683: real time      3.7881

 eigenvalue-minimisations  :     0
 total energy-change (2. order) : 0.4639683E+02  (-0.2526508E+02)
 number of electron     135.9999998 magnetization 
 augmentation part        0.9676004 magnetization 

 Free energy of the ion-electron system (eV)
  ---------------------------------------------------
  alpha Z        PSCENC =       164.42561539
  Ewald energy   TEWEN  =     -4769.51426773
  -Hartree energ DENC   =     -3574.99678679
  -exchange      EXHF   =         0.00000000
  -V(xc)+E(xc)   XCENC  =       516.70011778
  PAW double counting   =     50721.93522658   -50723.48561323
  entropy T*S    EENTRO =        -0.00000000
  eigenvalues    EBANDS =      -805.63982915
  atomic energy  EATOM  =      8326.42085552
  ---------------------------------------------------
  free energy    TOTEN  =      -144.15468162 eV

  energy without entropy =     -144.15468162  energy(sigma->0) =     -144.15468162


--------------------------------------------------------------------------------------------------------




--------------------------------------- Iteration      1(   7)  ---------------------------------------


    POTLOK:  cpu time      0.5889: real time      0.5892
    SETDIJ:  cpu time      0.0671: real time      0.0671
    TRIAL :  cpu time      1.4108: real time      1.4111
    CORREC:  cpu time      1.4900: real time      1.4910
    CHARGE:  cpu time      0.1541: real time      0.1541
    --------------------------------------------
      LOOP:  cpu time      3.7408: real time      3.7426

 eigenvalue-minimisations  :     0
 total energy-change (2. order) :-0.2538232E+02  (-0.2516645E+01)
 number of electron     135.9999998 magnetization 
 augmentation part        0.7967092 magnetization 

 Free energy of the ion-electron system (eV)
  ---------------------------------------------------
  alpha Z        PSCENC =       164.42561539
  Ewald energy   TEWEN  =     -4769.51426773
  -Hartree energ DENC   =     -3190.67416436
  -exchange      EXHF   =         0.00000000
  -V(xc)+E(xc)   XCENC  =       491.40007832
  PAW double counting   =     64350.96069683   -64344.76114596
  entropy T*S    EENTRO =        -0.00000000
  eigenvalues    EBANDS =     -1197.79466539
  atomic energy  EATOM  =      8326.42085552
  ---------------------------------------------------
  free energy    TOTEN  =      -169.53699737 eV

  energy without entropy =     -169.53699737  energy(sigma->0) =     -169.53699737


--------------------------------------------------------------------------------------------------------




--------------------------------------- Iteration      1(   8)  ---------------------------------------


    POTLOK:  cpu time      0.5899: real time      0.5902
    SETDIJ:  cpu time      0.0667: real time      0.0667
    TRIAL :  cpu time      1.3950: real time      1.3954
    CORREC:  cpu time      1.5406: real time      1.5414
    CHARGE:  cpu time      0.1526: real time      0.1526
    --------------------------------------------
      LOOP:  cpu time      3.7588: real time      3.7772

 eigenvalue-minimisations  :     0
 total energy-change (2. order) :-0.2518204E+01  (-0.7663397E+00)
 number of electron     135.9999998 magnetization 
 augmentation part        0.8068278 magnetization 

 Free energy of the ion-electron system (eV)
  ---------------------------------------------------
  alpha Z        PSCENC =       164.42561539
  Ewald energy   TEWEN  =     -4769.51426773
  -Hartree energ DENC   =     -3196.21354451
  -exchange      EXHF   =         0.00000000
  -V(xc)+E(xc)   XCENC  =       491.47616931
  PAW double counting   =     65731.44980467   -65724.19949027
  entropy T*S    EENTRO =        -0.00000000
  eigenvalues    EBANDS =     -1195.90034340
  atomic energy  EATOM  =      8326.42085552
  ---------------------------------------------------
  free energy    TOTEN  =      -172.05520100 eV

  energy without entropy =     -172.05520100  energy(sigma->0) =     -172.05520100


--------------------------------------------------------------------------------------------------------




--------------------------------------- Iteration      1(   9)  ---------------------------------------


    POTLOK:  cpu time      0.5989: real time      0.5989
    SETDIJ:  cpu time      0.0665: real time      0.0667
    TRIAL :  cpu time      1.3927: real time      1.3931
    CORREC:  cpu time      1.4915: real time      1.4919
    CHARGE:  cpu time      0.1523: real time      0.1525
    --------------------------------------------
      LOOP:  cpu time      3.7147: real time      3.7340

 eigenvalue-minimisations  :     0
 total energy-change (2. order) :-0.7655205E+00  (-0.2304002E+00)
 number of electron     135.9999998 magnetization 
 augmentation part        0.8270918 magnetization 

 Free energy of the ion-electron system (eV)
  ---------------------------------------------------
  alpha Z        PSCENC =       164.42561539
  Ewald energy   TEWEN  =     -4769.51426773
  -Hartree energ DENC   =     -3196.86481803
  -exchange      EXHF   =         0.00000000
  -V(xc)+E(xc)   XCENC  =       491.47844392
  PAW double counting   =     67982.33569659   -67975.09300043
  entropy T*S    EENTRO =        -0.00000000
  eigenvalues    EBANDS =     -1196.00924676
  atomic energy  EATOM  =      8326.42085552
  ---------------------------------------------------
  free energy    TOTEN  =      -172.82072153 eV

  energy without entropy =     -172.82072153  energy(sigma->0) =     -172.82072153


--------------------------------------------------------------------------------------------------------




--------------------------------------- Iteration      1(  10)  ---------------------------------------


    POTLOK:  cpu time      0.5895: real time      0.5896
    SETDIJ:  cpu time      0.0668: real time      0.0668
    TRIAL :  cpu time      1.3900: real time      1.3907
    CORREC:  cpu time      1.4900: real time      1.4906
    CHARGE:  cpu time      0.1530: real time      0.1530
    --------------------------------------------
      LOOP:  cpu time      3.7083: real time      3.7216

 eigenvalue-minimisations  :     0
 total energy-change (2. order) :-0.2298353E+00  (-0.6433682E-01)
 number of electron     135.9999998 magnetization 
 augmentation part        0.8356715 magnetization 

 Free energy of the ion-electron system (eV)
  ---------------------------------------------------
  alpha Z        PSCENC =       164.42561539
  Ewald energy   TEWEN  =     -4769.51426773
  -Hartree energ DENC   =     -3186.31510041
  -exchange      EXHF   =         0.00000000
  -V(xc)+E(xc)   XCENC  =       490.79279952
  PAW double counting   =     68019.50218255   -68012.32009958
  entropy T*S    EENTRO =        -0.00000000
  eigenvalues    EBANDS =     -1206.04254214
  atomic energy  EATOM  =      8326.42085552
  ---------------------------------------------------
  free energy    TOTEN  =      -173.05055687 eV

  energy without entropy =     -173.05055687  energy(sigma->0) =     -173.05055687


--------------------------------------------------------------------------------------------------------




--------------------------------------- Iteration      1(  11)  ---------------------------------------


    POTLOK:  cpu time      0.5905: real time      0.5908
    SETDIJ:  cpu time      0.0676: real time      0.0676
    TRIAL :  cpu time      1.3980: real time      1.3983
    CORREC:  cpu time      1.4886: real time      1.4896
    CHARGE:  cpu time      0.1550: real time      0.1550
    --------------------------------------------
      LOOP:  cpu time      3.7128: real time      3.7318

 eigenvalue-minimisations  :     0
 total energy-change (2. order) :-0.6437646E-01  (-0.1633740E-01)
 number of electron     135.9999998 magnetization 
 augmentation part        0.8348107 magnetization 

 Free energy of the ion-electron system (eV)
  ---------------------------------------------------
  alpha Z        PSCENC =       164.42561539
  Ewald energy   TEWEN  =     -4769.51426773
  -Hartree energ DENC   =     -3187.52204847
  -exchange      EXHF   =         0.00000000
  -V(xc)+E(xc)   XCENC  =       490.84674165
  PAW double counting   =     67360.75844574   -67353.69713067
  entropy T*S    EENTRO =        -0.00000000
  eigenvalues    EBANDS =     -1204.83314476
  atomic energy  EATOM  =      8326.42085552
  ---------------------------------------------------
  free energy    TOTEN  =      -173.11493333 eV

  energy without entropy =     -173.11493333  energy(sigma->0) =     -173.11493333


--------------------------------------------------------------------------------------------------------




--------------------------------------- Iteration      1(  12)  ---------------------------------------


    POTLOK:  cpu time      0.6161: real time      0.6163
    SETDIJ:  cpu time      0.0667: real time      0.0667
    TRIAL :  cpu time      1.3934: real time      1.3938
    CORREC:  cpu time      1.4867: real time      1.4874
    CHARGE:  cpu time      0.1545: real time      0.1545
    --------------------------------------------
      LOOP:  cpu time      3.7306: real time      3.7490

 eigenvalue-minimisations  :     0
 total energy-change (2. order) :-0.1633050E-01  (-0.4341669E-02)
 number of electron     135.9999998 magnetization 
 augmentation part        0.8329513 magnetization 

 Free energy of the ion-electron system (eV)
  ---------------------------------------------------
  alpha Z        PSCENC =       164.42561539
  Ewald energy   TEWEN  =     -4769.51426773
  -Hartree energ DENC   =     -3185.58386849
  -exchange      EXHF   =         0.00000000
  -V(xc)+E(xc)   XCENC  =       490.71100227
  PAW double counting   =     67558.18233197   -67551.09647777
  entropy T*S    EENTRO =        -0.00000000
  eigenvalues    EBANDS =     -1206.67645500
  atomic energy  EATOM  =      8326.42085552
  ---------------------------------------------------
  free energy    TOTEN  =      -173.13126383 eV

  energy without entropy =     -173.13126383  energy(sigma->0) =     -173.13126383


--------------------------------------------------------------------------------------------------------




--------------------------------------- Iteration      1(  13)  ---------------------------------------


    POTLOK:  cpu time      0.5846: real time      0.5846
    SETDIJ:  cpu time      0.0670: real time      0.0670
    TRIAL :  cpu time      1.4005: real time      1.4012
    CORREC:  cpu time      1.4874: real time      1.4879
    CHARGE:  cpu time      0.1529: real time      0.1529
    --------------------------------------------
      LOOP:  cpu time      3.7052: real time      3.7249

 eigenvalue-minimisations  :     0
 total energy-change (2. order) :-0.4336197E-02  (-0.1152696E-02)
 number of electron     135.9999998 magnetization 
 augmentation part        0.8319405 magnetization 

 Free energy of the ion-electron system (eV)
  ---------------------------------------------------
  alpha Z        PSCENC =       164.42561539
  Ewald energy   TEWEN  =     -4769.51426773
  -Hartree energ DENC   =     -3185.38552351
  -exchange      EXHF   =         0.00000000
  -V(xc)+E(xc)   XCENC  =       490.70452456
  PAW double counting   =     67688.33564003   -67681.23425416
  entropy T*S    EENTRO =        -0.00000000
  eigenvalues    EBANDS =     -1206.88819012
  atomic energy  EATOM  =      8326.42085552
  ---------------------------------------------------
  free energy    TOTEN  =      -173.13560002 eV

  energy without entropy =     -173.13560002  energy(sigma->0) =     -173.13560002


--------------------------------------------------------------------------------------------------------




--------------------------------------- Iteration      1(  14)  ---------------------------------------


    POTLOK:  cpu time      0.5898: real time      0.5898
    SETDIJ:  cpu time      0.0668: real time      0.0668
    TRIAL :  cpu time      1.3899: real time      1.3905
    CORREC:  cpu time      1.4868: real time      1.4874
    CHARGE:  cpu time      0.1588: real time      0.1588
    --------------------------------------------
      LOOP:  cpu time      3.7039: real time      3.7231

 eigenvalue-minimisations  :     0
 total energy-change (2. order) :-0.1150079E-02  (-0.3844647E-03)
 number of electron     135.9999998 magnetization 
 augmentation part        0.8318669 magnetization 

 Free energy of the ion-electron system (eV)
  ---------------------------------------------------
  alpha Z        PSCENC =       164.42561539
  Ewald energy   TEWEN  =     -4769.51426773
  -Hartree energ DENC   =     -3185.25226994
  -exchange      EXHF   =         0.00000000
  -V(xc)+E(xc)   XCENC  =       490.69417513
  PAW double counting   =     67649.69141099   -67642.58400835
  entropy T*S    EENTRO =        -0.00000000
  eigenvalues    EBANDS =     -1207.01826112
  atomic energy  EATOM  =      8326.42085552
  ---------------------------------------------------
  free energy    TOTEN  =      -173.13675010 eV

  energy without entropy =     -173.13675010  energy(sigma->0) =     -173.13675010


--------------------------------------------------------------------------------------------------------




--------------------------------------- Iteration      1(  15)  ---------------------------------------


    POTLOK:  cpu time      0.6109: real time      0.6111
    SETDIJ:  cpu time      0.0674: real time      0.0674
    TRIAL :  cpu time      1.3911: real time      1.3915
    CORREC:  cpu time      1.4943: real time      1.4952
    CHARGE:  cpu time      0.1523: real time      0.1524
    --------------------------------------------
      LOOP:  cpu time      3.7461: real time      3.7479

 eigenvalue-minimisations  :     0
 total energy-change (2. order) :-0.3851870E-03  (-0.1557811E-03)
 number of electron     135.9999998 magnetization 
 augmentation part        0.8318599 magnetization 

 Free energy of the ion-electron system (eV)
  ---------------------------------------------------
  alpha Z        PSCENC =       164.42561539
  Ewald energy   TEWEN  =     -4769.51426773
  -Hartree energ DENC   =     -3185.27710406
  -exchange      EXHF   =         0.00000000
  -V(xc)+E(xc)   XCENC  =       490.69325358
  PAW double counting   =     67571.99085516   -67564.88570257
  entropy T*S    EENTRO =        -0.00000000
  eigenvalues    EBANDS =     -1206.99064059
  atomic energy  EATOM  =      8326.42085552
  ---------------------------------------------------
  free energy    TOTEN  =      -173.13713529 eV

  energy without entropy =     -173.13713529  energy(sigma->0) =     -173.13713529


--------------------------------------------------------------------------------------------------------




--------------------------------------- Iteration      1(  16)  ---------------------------------------


    POTLOK:  cpu time      0.5900: real time      0.5903
    SETDIJ:  cpu time      0.0668: real time      0.0668
    TRIAL :  cpu time      1.3896: real time      1.3899
    CORREC:  cpu time      1.4889: real time      1.4896
    CHARGE:  cpu time      0.1524: real time      0.1524
    --------------------------------------------
      LOOP:  cpu time      3.7016: real time      3.7188

 eigenvalue-minimisations  :     0
 total energy-change (2. order) :-0.1565270E-03  (-0.6619521E-04)
 number of electron     135.9999998 magnetization 
 augmentation part        0.8315656 magnetization 

 Free energy of the ion-electron system (eV)
  ---------------------------------------------------
  alpha Z        PSCENC =       164.42561539
  Ewald energy   TEWEN  =     -4769.51426773
  -Hartree energ DENC   =     -3185.40330028
  -exchange      EXHF   =         0.00000000
  -V(xc)+E(xc)   XCENC  =       490.70064177
  PAW double counting   =     67529.34219051   -67522.23952872
  entropy T*S    EENTRO =        -0.00000000
  eigenvalues    EBANDS =     -1206.86949828
  atomic energy  EATOM  =      8326.42085552
  ---------------------------------------------------
  free energy    TOTEN  =      -173.13729182 eV

  energy without entropy =     -173.13729182  energy(sigma->0) =     -173.13729182


--------------------------------------------------------------------------------------------------------




--------------------------------------- Iteration      1(  17)  ---------------------------------------


    POTLOK:  cpu time      0.5987: real time      0.5987
    SETDIJ:  cpu time      0.0667: real time      0.0667
    TRIAL :  cpu time      1.3914: real time      1.3919
    CORREC:  cpu time      1.4858: real time      1.4863
    CHARGE:  cpu time      0.1561: real time      0.1561
    --------------------------------------------
      LOOP:  cpu time      3.7126: real time      3.7307

 eigenvalue-minimisations  :     0
 total energy-change (2. order) :-0.6521990E-04  (-0.2247356E-04)
 number of electron     135.9999998 magnetization 
 augmentation part        0.8314605 magnetization 

 Free energy of the ion-electron system (eV)
  ---------------------------------------------------
  alpha Z        PSCENC =       164.42561539
  Ewald energy   TEWEN  =     -4769.51426773
  -Hartree energ DENC   =     -3185.36472834
  -exchange      EXHF   =         0.00000000
  -V(xc)+E(xc)   XCENC  =       490.69866681
  PAW double counting   =     67546.26557610   -67539.16025916
  entropy T*S    EENTRO =        -0.00000000
  eigenvalues    EBANDS =     -1206.90881564
  atomic energy  EATOM  =      8326.42085552
  ---------------------------------------------------
  free energy    TOTEN  =      -173.13735704 eV

  energy without entropy =     -173.13735704  energy(sigma->0) =     -173.13735704


--------------------------------------------------------------------------------------------------------




--------------------------------------- Iteration      1(  18)  ---------------------------------------


    POTLOK:  cpu time      0.6977: real time      0.6980
    SETDIJ:  cpu time      0.0668: real time      0.0668
    TRIAL :  cpu time      1.3982: real time      1.3989
    CORREC:  cpu time      1.4946: real time      1.4952
    CHARGE:  cpu time      0.1531: real time      0.1531
    --------------------------------------------
      LOOP:  cpu time      3.8405: real time      3.8423

 eigenvalue-minimisations  :     0
 total energy-change (2. order) :-0.2175090E-04  (-0.6204137E-05)
 number of electron     135.9999998 magnetization 
 augmentation part        0.8314323 magnetization 

 Free energy of the ion-electron system (eV)
  ---------------------------------------------------
  alpha Z        PSCENC =       164.42561539
  Ewald energy   TEWEN  =     -4769.51426773
  -Hartree energ DENC   =     -3185.42747588
  -exchange      EXHF   =         0.00000000
  -V(xc)+E(xc)   XCENC  =       490.70260072
  PAW double counting   =     67573.81527726   -67566.70930812
  entropy T*S    EENTRO =        -0.00000000
  eigenvalues    EBANDS =     -1206.85067595
  atomic energy  EATOM  =      8326.42085552
  ---------------------------------------------------
  free energy    TOTEN  =      -173.13737879 eV

  energy without entropy =     -173.13737879  energy(sigma->0) =     -173.13737879


--------------------------------------------------------------------------------------------------------




--------------------------------------- Iteration      1(  19)  ---------------------------------------


    POTLOK:  cpu time      0.5926: real time      0.5932
    SETDIJ:  cpu time      0.0675: real time      0.0675
    TRIAL :  cpu time      1.3947: real time      1.3950
    CORREC:  cpu time      1.4875: real time      1.4883
    CHARGE:  cpu time      0.1581: real time      0.1581
    --------------------------------------------
      LOOP:  cpu time      3.7146: real time      3.7341

 eigenvalue-minimisations  :     0
 total energy-change (2. order) :-0.6103750E-05  (-0.1869671E-05)
 number of electron     135.9999998 magnetization 
 augmentation part        0.8314291 magnetization 

 Free energy of the ion-electron system (eV)
  ---------------------------------------------------
  alpha Z        PSCENC =       164.42561539
  Ewald energy   TEWEN  =     -4769.51426773
  -Hartree energ DENC   =     -3185.42882372
  -exchange      EXHF   =         0.00000000
  -V(xc)+E(xc)   XCENC  =       490.70276828
  PAW double counting   =     67586.28292820   -67579.17657231
  entropy T*S    EENTRO =        -0.00000000
  eigenvalues    EBANDS =     -1206.84988853
  atomic energy  EATOM  =      8326.42085552
  ---------------------------------------------------
  free energy    TOTEN  =      -173.13738489 eV

  energy without entropy =     -173.13738489  energy(sigma->0) =     -173.13738489


--------------------------------------------------------------------------------------------------------




--------------------------------------- Iteration      1(  20)  ---------------------------------------


    POTLOK:  cpu time      0.5890: real time      0.5893
    SETDIJ:  cpu time      0.0666: real time      0.0666
    TRIAL :  cpu time      1.3920: real time      1.3923
    CORREC:  cpu time      1.4879: real time      1.4885
    CHARGE:  cpu time      0.1516: real time      0.1516
    --------------------------------------------
      LOOP:  cpu time      3.7007: real time      3.7181

 eigenvalue-minimisations  :     0
 total energy-change (2. order) :-0.1893706E-05  (-0.5211271E-06)
 number of electron     135.9999998 magnetization 
 augmentation part        0.8314480 magnetization 

 Free energy of the ion-electron system (eV)
  ---------------------------------------------------
  alpha Z        PSCENC =       164.42561539
  Ewald energy   TEWEN  =     -4769.51426773
  -Hartree energ DENC   =     -3185.41454796
  -exchange      EXHF   =         0.00000000
  -V(xc)+E(xc)   XCENC  =       490.70178789
  PAW double counting   =     67587.52685017   -67580.42035415
  entropy T*S    EENTRO =        -0.00000000
  eigenvalues    EBANDS =     -1206.86332592
  atomic energy  EATOM  =      8326.42085552
  ---------------------------------------------------
  free energy    TOTEN  =      -173.13738678 eV

  energy without entropy =     -173.13738678  energy(sigma->0) =     -173.13738678


--------------------------------------------------------------------------------------------------------




--------------------------------------- Iteration      1(  21)  ---------------------------------------


    POTLOK:  cpu time      0.5906: real time      0.5906
    SETDIJ:  cpu time      0.0666: real time      0.0666
    TRIAL :  cpu time      1.4079: real time      1.4086
    CORREC:  cpu time      1.4864: real time      1.4869
    CHARGE:  cpu time      0.1519: real time      0.1519
    --------------------------------------------
      LOOP:  cpu time      3.7172: real time      3.7350

 eigenvalue-minimisations  :     0
 total energy-change (2. order) :-0.5461334E-06  (-0.1803681E-06)
 number of electron     135.9999998 magnetization 
 augmentation part        0.8314524 magnetization 

 Free energy of the ion-electron system (eV)
  ---------------------------------------------------
  alpha Z        PSCENC =       164.42561539
  Ewald energy   TEWEN  =     -4769.51426773
  -Hartree energ DENC   =     -3185.41781203
  -exchange      EXHF   =         0.00000000
  -V(xc)+E(xc)   XCENC  =       490.70197368
  PAW double counting   =     67585.09868674   -67577.99243175
  entropy T*S    EENTRO =        -0.00000000
  eigenvalues    EBANDS =     -1206.86000715
  atomic energy  EATOM  =      8326.42085552
  ---------------------------------------------------
  free energy    TOTEN  =      -173.13738733 eV

  energy without entropy =     -173.13738733  energy(sigma->0) =     -173.13738733


--------------------------------------------------------------------------------------------------------




--------------------------------------- Iteration      1(  22)  ---------------------------------------


    POTLOK:  cpu time      0.5911: real time      0.5914
    SETDIJ:  cpu time      0.0676: real time      0.0676
    TRIAL :  cpu time      1.3923: real time      1.3930
    CORREC:  cpu time      1.4965: real time      1.4971
    CHARGE:  cpu time      0.1517: real time      0.1517
    --------------------------------------------
      LOOP:  cpu time      3.7117: real time      3.7305

 eigenvalue-minimisations  :     0
 total energy-change (2. order) :-0.1887747E-06  (-0.8651594E-07)
 number of electron     135.9999998 magnetization 
 augmentation part        0.8314524 magnetization 

 Free energy of the ion-electron system (eV)
  ---------------------------------------------------
  alpha Z        PSCENC =       164.42561539
  Ewald energy   TEWEN  =     -4769.51426773
  -Hartree energ DENC   =     -3185.41469563
  -exchange      EXHF   =         0.00000000
  -V(xc)+E(xc)   XCENC  =       490.70176374
  PAW double counting   =     67583.13667811   -67576.03046358
  entropy T*S    EENTRO =        -0.00000000
  eigenvalues    EBANDS =     -1206.86287335
  atomic energy  EATOM  =      8326.42085552
  ---------------------------------------------------
  free energy    TOTEN  =      -173.13738752 eV

  energy without entropy =     -173.13738752  energy(sigma->0) =     -173.13738752


--------------------------------------------------------------------------------------------------------




--------------------------------------- Iteration      1(  23)  ---------------------------------------


    POTLOK:  cpu time      0.5929: real time      0.5932
    SETDIJ:  cpu time      0.0666: real time      0.0666
    TRIAL :  cpu time      1.3884: real time      1.3888
    CORREC:  cpu time      1.4892: real time      1.4899
    EDDIAG:  cpu time      0.7376: real time      0.7387
    CHARGE:  cpu time      0.1576: real time      0.1579
    --------------------------------------------
      LOOP:  cpu time      4.4627: real time      4.4657

 eigenvalue-minimisations  :     0
 total energy-change (2. order) :-0.9032374E-07  (-0.3337217E-07)
 number of electron     135.9999998 magnetization 
 augmentation part        0.8314550 magnetization 

 Free energy of the ion-electron system (eV)
  ---------------------------------------------------
  alpha Z        PSCENC =       164.42561539
  Ewald energy   TEWEN  =     -4769.51426773
  -Hartree energ DENC   =     -3185.41104181
  -exchange      EXHF   =         0.00000000
  -V(xc)+E(xc)   XCENC  =       490.70153279
  PAW double counting   =     67581.82667064   -67574.72043632
  entropy T*S    EENTRO =        -0.00000000
  eigenvalues    EBANDS =     -1206.86631609
  atomic energy  EATOM  =      8326.42085552
  ---------------------------------------------------
  free energy    TOTEN  =      -173.13738761 eV

  energy without entropy =     -173.13738761  energy(sigma->0) =     -173.13738761


--------------------------------------------------------------------------------------------------------


  average scaling for gradient   0.8131


 average (electrostatic) potential at core
  the test charge radii are     0.5770  0.4325  0.5955
  (the norm of the test charge is              1.0000)
       1 -85.0874       2 -85.0874       3 -85.0874       4 -85.0874       5 -85.0874
       6 -85.0874       7 -85.0874       8 -85.0874       9 -43.4078      10 -43.4078
      11 -43.4078      12 -43.4078      13 -43.4078      14 -43.4078      15 -43.4078
      16 -43.4078      17-114.0802      18-115.1546      19-114.0802      20-115.1546
      21-114.0802      22-114.0802      23-114.0802      24-114.0802      25-114.0802
      26-114.0802      27-115.1546      28-115.1546      29-115.1546      30-115.1546
      31-115.1546      32-115.1546



 E-fermi :  -0.4501     XC(G=0):  -9.2735     alpha+bet : -7.5870

 Fermi energy:        -0.4500741485

 k-point     1 :       0.0000    0.0000    0.0000
  band No.  band energies     occupation 
      1     -22.5219      2.00000
      2     -22.3339      2.00000
      3     -22.1851      2.00000
[...]
      7     -21.6421      2.00000
      8     -21.6421      2.00000
      9     -20.0899      2.00000
     10     -20.0899      2.00000
     11     -20.0834      2.00000
     12     -20.0834      2.00000
     13     -19.6296      2.00000
     14     -19.6296      2.00000
     15     -19.6259      2.00000
     16     -19.6259      2.00000
     17     -11.8497      2.00000
     18     -11.8497      2.00000
     19     -11.8403      2.00000
     20     -11.8403      2.00000
     21      -9.7767      2.00000
     22      -9.7767      2.00000
     23      -9.7564      2.00000
     24      -9.7564      2.00000
     25      -7.4597      2.00000
     26      -7.4597      2.00000
     27      -7.4112      2.00000
     28      -7.4112      2.00000
     29      -6.7501      2.00000
     30      -6.7501      2.00000
     31      -6.6901      2.00000
     32      -6.6901      2.00000
     33      -6.3378      2.00000
     34      -6.3378      2.00000
     35      -6.2397      2.00000
     36      -6.2397      2.00000
     37      -5.6842      2.00000
     38      -5.6842      2.00000
     39      -5.5981      2.00000
     40      -5.5981      2.00000
     41      -4.6916      2.00000
     42      -4.6916      2.00000
     43      -4.5805      2.00000
     44      -4.5805      2.00000
     45      -4.3343      2.00000
     46      -4.3343      2.00000
     47      -4.2121      2.00000
     48      -4.2121      2.00000
     49      -3.4620      2.00000
     50      -3.4620      2.00000
     51      -3.3918      2.00000
     52      -3.3918      2.00000
     53      -2.3736      2.00000
     54      -2.3736      2.00000
     55      -2.3214      2.00000
     56      -2.3214      2.00000
     57      -2.1475      2.00000
     58      -2.1475      2.00000
     59      -2.0603      2.00000
     60      -2.0603      2.00000
     61      -2.0013      2.00000
     62      -2.0013      2.00000
     63      -1.9359      2.00000
     64      -1.9359      2.00000
     65      -0.7554      2.00000
     66      -0.7554      2.00000
     67      -0.7445      2.00000
     68      -0.7445      2.00000
     69       3.0497      0.00000
     70       3.0497      0.00000
     71       3.1169      0.00000
     72       3.1169      0.00000
     73       6.4621      0.00000
     74       6.4621      0.00000
     75       6.5109      0.00000
     76       6.5109      0.00000
     77       7.3592      0.00000
     78       7.3594      0.00000
     79       7.9046      0.00000
     80       7.9048      0.00000
     81       8.7300      0.00000
     82       8.7314      0.00000
     83       9.1941      0.00000
     84       9.2061      0.00000
     85       9.7896      0.00000
     86       9.9179      0.00000
     87      10.1088      0.00000
     88      10.7262      0.00000

 k-point    25 :       0.2500   -0.3333    0.5000
  band No.  band energies     occupation 
      1     -22.3157      2.00000
      2     -22.3157      2.00000
      3     -22.2834      2.00000
      4     -22.2834      2.00000
      5     -21.6557      2.00000
      6     -21.6557      2.00000
      7     -21.6421      2.00000
      8     -21.6421      2.00000
      9     -20.0899      2.00000
     10     -20.0899      2.00000
     11     -20.0834      2.00000
     12     -20.0834      2.00000
     13     -19.6296      2.00000
     14     -19.6296      2.00000
     15     -19.6259      2.00000
     16     -19.6259      2.00000
     17     -11.8497      2.00000
     18     -11.8497      2.00000
     19     -11.8403      2.00000
     20     -11.8403      2.00000
     21      -9.7767      2.00000
     22      -9.7767      2.00000
     23      -9.7564      2.00000
     24      -9.7564      2.00000
     25      -7.4597      2.00000
     26      -7.4597      2.00000
     27      -7.4112      2.00000
     28      -7.4112      2.00000
     29      -6.7501      2.00000
     30      -6.7501      2.00000
     31      -6.6901      2.00000
     32      -6.6901      2.00000
     33      -6.3378      2.00000
     34      -6.3378      2.00000
     35      -6.2397      2.00000
     36      -6.2397      2.00000
     37      -5.6842      2.00000
     38      -5.6842      2.00000
     39      -5.5981      2.00000
     40      -5.5981      2.00000
     41      -4.6916      2.00000
     42      -4.6916      2.00000
     43      -4.5805      2.00000
     44      -4.5805      2.00000
     45      -4.3343      2.00000
     46      -4.3343      2.00000
     47      -4.2121      2.00000
     48      -4.2121      2.00000
     49      -3.4620      2.00000
     50      -3.4620      2.00000
     51      -3.3918      2.00000
     52      -3.3918      2.00000
     53      -2.3736      2.00000
     54      -2.3736      2.00000
     55      -2.3214      2.00000
     56      -2.3214      2.00000
     57      -2.1475      2.00000
     58      -2.1475      2.00000
     59      -2.0603      2.00000
     60      -2.0603      2.00000
     61      -2.0013      2.00000
     62      -2.0013      2.00000
     63      -1.9359      2.00000
     64      -1.9359      2.00000
     65      -0.7554      2.00000
     66      -0.7554      2.00000
     67      -0.7445      2.00000
     68      -0.7445      2.00000
     69       3.0497      0.00000
     70       3.0497      0.00000
     71       3.1169      0.00000
     72       3.1169      0.00000
     73       6.4621      0.00000
     74       6.4621      0.00000
     75       6.5109      0.00000
     76       6.5109      0.00000
     77       7.3593      0.00000
     78       7.3594      0.00000
     79       7.9044      0.00000
     80       7.9046      0.00000
     81       8.7300      0.00000
     82       8.7340      0.00000
     83       9.1933      0.00000
     84       9.2002      0.00000
     85       9.7991      0.00000
     86       9.8307      0.00000
     87      10.1017      0.00000
     88      10.1708      0.00000

 k-point    26 :       0.5000    0.3333    0.5000
  band No.  band energies     occupation 
      1     -22.2981      2.00000
      2     -22.2981      2.00000
      3     -22.2981      2.00000
      4     -22.2981      2.00000
      5     -21.6505      2.00000
      6     -21.6505      2.00000
      7     -21.6505      2.00000
      8     -21.6505      2.00000
      9     -20.0874      2.00000
     10     -20.0874      2.00000
     11     -20.0874      2.00000
     12     -20.0874      2.00000
     13     -19.6275      2.00000
     14     -19.6275      2.00000
     15     -19.6275      2.00000
     16     -19.6275      2.00000
     17     -11.8417      2.00000
     18     -11.8417      2.00000
     19     -11.8417      2.00000
     20     -11.8417      2.00000
     21      -9.7687      2.00000
     22      -9.7687      2.00000
     23      -9.7687      2.00000
     24      -9.7687      2.00000
     25      -7.4285      2.00000
     26      -7.4285      2.00000
     27      -7.4285      2.00000
     28      -7.4285      2.00000
     29      -6.7738      2.00000
     30      -6.7738      2.00000
     31      -6.7738      2.00000
     32      -6.7738      2.00000
     33      -6.2195      2.00000
     34      -6.2195      2.00000
     35      -6.2195      2.00000
     36      -6.2195      2.00000
     37      -5.6514      2.00000
     38      -5.6514      2.00000
     39      -5.6514      2.00000
     40      -5.6514      2.00000
     41      -4.6202      2.00000
     42      -4.6202      2.00000
     43      -4.6202      2.00000
     44      -4.6202      2.00000
     45      -4.2772      2.00000
     46      -4.2772      2.00000
     47      -4.2772      2.00000
     48      -4.2772      2.00000
     49      -3.4449      2.00000
     50      -3.4449      2.00000
     51      -3.4449      2.00000
     52      -3.4449      2.00000
     53      -2.3351      2.00000
     54      -2.3351      2.00000
     55      -2.3351      2.00000
     56      -2.3351      2.00000
     57      -2.1506      2.00000
     58      -2.1506      2.00000
     59      -2.1506      2.00000
     60      -2.1506      2.00000
     61      -1.9707      2.00000
     62      -1.9707      2.00000
     63      -1.9707      2.00000
     64      -1.9707      2.00000
     65      -0.7428      2.00000
     66      -0.7428      2.00000
     67      -0.7428      2.00000
     68      -0.7428      2.00000
     69       3.0808      0.00000
     70       3.0808      0.00000
     71       3.0808      0.00000
     72       3.0808      0.00000
     73       6.5093      0.00000
     74       6.5093      0.00000
     75       6.5093      0.00000
     76       6.5093      0.00000
     77       7.9050      0.00000
     78       7.9051      0.00000
     79       7.9055      0.00000
     80       7.9066      0.00000
     81       8.5353      0.00000
     82       8.5357      0.00000
     83       8.5367      0.00000
     84       8.5393      0.00000
     85       9.9935      0.00000
     86      10.0014      0.00000
     87      10.0134      0.00000
     88      10.1513      0.00000


--------------------------------------------------------------------------------------------------------


 soft charge-density along one line, spin component           1
         0         1         2         3         4         5         6         7         8         9
 total charge-density along one line

 pseudopotential strength for first ion, spin component:           1
 12.536  21.096   0.002  -0.003   0.002   0.004  -0.006   0.004
 21.096  35.500   0.003  -0.006   0.004   0.006  -0.010   0.007
  0.002   0.003  -3.322  -0.000  -0.000  -5.952  -0.001  -0.000
 -0.003  -0.006  -0.000  -3.324  -0.025  -0.001  -5.955  -0.045
  0.002   0.004  -0.000  -0.025  -3.342  -0.000  -0.045  -5.987
  0.004   0.006  -5.952  -0.001  -0.000 -10.641  -0.002   0.000
 -0.006  -0.010  -0.001  -5.955  -0.045  -0.002 -10.647  -0.079
  0.004   0.007  -0.000  -0.045  -5.987   0.000  -0.079 -10.702
 total augmentation occupancy for first ion, spin component:           1
  6.729  -2.438   0.359  -1.479   1.042  -0.165   0.657  -0.463
 -2.438   1.041  -0.232   0.712  -0.505   0.083  -0.300   0.212
  0.359  -0.232   6.271   1.338  -0.952  -2.137  -0.608   0.432
 -1.479   0.712   1.338   5.278  -2.383  -0.608  -1.718   0.951
  1.042  -0.505  -0.952  -2.383   3.659   0.431   0.951  -1.073
 -0.165   0.083  -2.137  -0.608   0.431   0.772   0.262  -0.186
  0.657  -0.300  -0.608  -1.718   0.951   0.262   0.612  -0.380
 -0.463   0.212   0.432   0.951  -1.073  -0.186  -0.380   0.354


------------------------ aborting loop because EDIFF is reached ----------------------------------------


    FORLOC:  cpu time      0.0060: real time      0.0060
    FORNL :  cpu time      0.5764: real time      0.5765
    FORCOR:  cpu time      0.6595: real time      0.6601
    OFIELD:  cpu time      0.0018: real time      0.0020

 VOLUME and BASIS-vectors are now :
 -----------------------------------------------------------------------------
  energy-cutoff  :     1000.00
  volume of cell :      312.59
      direct lattice vectors                 reciprocal lattice vectors
     6.548000000  0.000000000  0.000000000     0.152718387  0.000000000  0.000000000
     0.000000000  7.844000000  0.000000000     0.000000000  0.127485977  0.000000000
     0.000000000  0.000000000  6.086000000     0.000000000  0.000000000  0.164311535

  length of vectors
     6.548000000  7.844000000  6.086000000     0.152718387  0.127485977  0.164311535


 FORCES acting on ions:
    Electron-Ion                     Ewald-Force                    Non-Local-Force
 -----------------------------------------------------------------------------------------------
   0.228E+02 0.984E+01 -.367E+02   -.239E+02 -.164E+02 0.380E+02   0.116E+01 0.661E+01 -.129E+01
   -.228E+02 -.984E+01 0.367E+02   0.239E+02 0.164E+02 -.380E+02   -.116E+01 -.661E+01 0.129E+01
   -.228E+02 0.984E+01 -.367E+02   0.239E+02 -.164E+02 0.380E+02   -.116E+01 0.661E+01 -.129E+01
   0.228E+02 -.984E+01 -.367E+02   -.239E+02 0.164E+02 0.380E+02   0.116E+01 -.661E+01 -.129E+01
   -.228E+02 -.984E+01 -.367E+02   0.239E+02 0.164E+02 0.380E+02   -.116E+01 -.661E+01 -.129E+01
   0.228E+02 -.984E+01 0.367E+02   -.239E+02 0.164E+02 -.380E+02   0.116E+01 -.661E+01 0.129E+01
   -.228E+02 0.984E+01 0.367E+02   0.239E+02 -.164E+02 -.380E+02   -.116E+01 0.661E+01 0.129E+01
   0.228E+02 0.984E+01 0.367E+02   -.239E+02 -.164E+02 -.380E+02   0.116E+01 0.661E+01 0.129E+01
   -.266E+02 -.367E+02 0.356E+02   0.296E+02 0.413E+02 -.403E+02   -.307E+01 -.472E+01 0.485E+01
   0.266E+02 0.367E+02 -.356E+02   -.296E+02 -.413E+02 0.403E+02   0.307E+01 0.472E+01 -.485E+01
   0.266E+02 -.367E+02 0.356E+02   -.296E+02 0.413E+02 -.403E+02   0.307E+01 -.472E+01 0.485E+01
   -.266E+02 0.367E+02 0.356E+02   0.296E+02 -.413E+02 -.403E+02   -.307E+01 0.472E+01 0.485E+01
   0.266E+02 0.367E+02 0.356E+02   -.296E+02 -.413E+02 -.403E+02   0.307E+01 0.472E+01 0.485E+01
   -.266E+02 0.367E+02 -.356E+02   0.296E+02 -.413E+02 0.403E+02   -.307E+01 0.472E+01 -.485E+01
   0.266E+02 -.367E+02 -.356E+02   -.296E+02 0.413E+02 0.403E+02   0.307E+01 -.472E+01 -.485E+01
   -.266E+02 -.367E+02 -.356E+02   0.296E+02 0.413E+02 0.403E+02   -.307E+01 -.472E+01 -.485E+01
   -.108E+03 0.567E+02 0.145E+03   0.136E+03 -.737E+02 -.183E+03   -.277E+02 0.172E+02 0.373E+02
   0.302E+02 -.158E+03 -.515E+02   -.526E+02 0.182E+03 0.848E+02   0.225E+02 -.236E+02 -.335E+02
   0.108E+03 -.567E+02 -.145E+03   -.136E+03 0.737E+02 0.183E+03   0.277E+02 -.172E+02 -.373E+02
   -.302E+02 0.158E+03 0.515E+02   0.526E+02 -.182E+03 -.848E+02   -.225E+02 0.236E+02 0.335E+02
   0.108E+03 0.567E+02 0.145E+03   -.136E+03 -.737E+02 -.183E+03   0.277E+02 0.172E+02 0.373E+02
   -.108E+03 -.567E+02 0.145E+03   0.136E+03 0.737E+02 -.183E+03   -.277E+02 -.172E+02 0.373E+02
   0.108E+03 -.567E+02 0.145E+03   -.136E+03 0.737E+02 -.183E+03   0.277E+02 -.172E+02 0.373E+02
   -.108E+03 -.567E+02 -.145E+03   0.136E+03 0.737E+02 0.183E+03   -.277E+02 -.172E+02 -.373E+02
   0.108E+03 0.567E+02 -.145E+03   -.136E+03 -.737E+02 0.183E+03   0.277E+02 0.172E+02 -.373E+02
   -.108E+03 0.567E+02 -.145E+03   0.136E+03 -.737E+02 0.183E+03   -.277E+02 0.172E+02 -.373E+02
   -.302E+02 -.158E+03 -.515E+02   0.526E+02 0.182E+03 0.848E+02   -.225E+02 -.236E+02 -.335E+02
   0.302E+02 0.158E+03 -.515E+02   -.526E+02 -.182E+03 0.848E+02   0.225E+02 0.236E+02 -.335E+02
   -.302E+02 0.158E+03 -.515E+02   0.526E+02 -.182E+03 0.848E+02   -.225E+02 0.236E+02 -.335E+02
   0.302E+02 0.158E+03 0.515E+02   -.526E+02 -.182E+03 -.848E+02   0.225E+02 0.236E+02 0.335E+02
   -.302E+02 -.158E+03 0.515E+02   0.526E+02 0.182E+03 -.848E+02   -.225E+02 -.236E+02 0.335E+02
   0.302E+02 -.158E+03 0.515E+02   -.526E+02 0.182E+03 -.848E+02   0.225E+02 -.236E+02 0.335E+02
 -----------------------------------------------------------------------------------------------
   -.913E-05 0.264E-05 0.456E-05   0.107E-12 0.256E-12 -.284E-13   0.355E-14 -.711E-14 -.711E-14


 POSITION                                       TOTAL-FORCE (eV/Angst)
 -----------------------------------------------------------------------------------
      0.37583      0.43233      5.56714        -0.004002     -0.203852      0.016627
      6.17217      7.41167      0.51886         0.004002      0.203852     -0.016627
      2.89817      0.43233      2.52414         0.004014     -0.203827      0.016646
      3.64983      3.48967      5.56714        -0.004007      0.203853      0.016633
      6.17217      3.48967      2.52414         0.004009      0.203841      0.016640
      3.64983      7.41167      3.56186        -0.004014      0.203827     -0.016646
      2.89817      4.35433      0.51886         0.004007     -0.203853     -0.016633
      0.37583      4.35433      3.56186        -0.004009     -0.203841     -0.016640
      0.63015      2.31843      5.13527        -0.068015     -0.116122      0.134453
      5.91785      5.52557      0.95073         0.068015      0.116122     -0.134453
      2.64385      2.31843      2.09227         0.068019     -0.116123      0.134458
      3.90415      1.60357      5.13527        -0.068019      0.116123      0.134457
      5.91785      1.60357      2.09227         0.068019      0.116125      0.134459
      3.90415      5.52557      3.99373        -0.068019      0.116123     -0.134458
      2.64385      6.24043      0.95073         0.068019     -0.116123     -0.134457
      0.63015      6.24043      3.99373        -0.068019     -0.116125     -0.134459
      1.02885      7.78797      4.65332         0.125688      0.022635     -0.112323
      0.20001      1.71027      5.81226         0.033363      0.456447     -0.050567
      5.51915      0.05603      1.43268        -0.125688     -0.022635      0.112323
      6.34799      6.13373      0.27374        -0.033363     -0.456447      0.050567
      2.24515      7.78798      1.61032        -0.125704      0.022632     -0.112337
      4.30285      3.97802      4.65332         0.125693     -0.022634     -0.112326
      5.51915      3.97803      1.61032        -0.125692     -0.022638     -0.112328
      4.30285      0.05602      4.47568         0.125704     -0.022632      0.112337
      2.24515      3.86598      1.43268        -0.125693      0.022634      0.112326
      1.02885      3.86597      4.47568         0.125692      0.022638      0.112328
      3.07399      1.71027      2.76927        -0.033364      0.456439     -0.050576
      3.47401      2.21173      5.81226         0.033368     -0.456442     -0.050576
      6.34799      2.21173      2.76927        -0.033367     -0.456444     -0.050581
      3.47401      6.13373      3.31673         0.033364     -0.456439      0.050576
      3.07399      5.63227      0.27374        -0.033368      0.456442      0.050576
      0.20001      5.63227      3.31673         0.033367      0.456444      0.050581
 -----------------------------------------------------------------------------------
    total drift:                               -0.000009      0.000003      0.000005


--------------------------------------------------------------------------------------------------------



  FREE ENERGIE OF THE ION-ELECTRON SYSTEM (eV)
  ---------------------------------------------------
  free  energy   TOTEN  =      -173.13738761 eV

  energy  without entropy=     -173.13738761  energy(sigma->0) =     -173.13738761



--------------------------------------------------------------------------------------------------------


    POTLOK:  cpu time      0.6722: real time      0.6725


--------------------------------------------------------------------------------------------------------


 stress matrix after NEB project (eV)
      0.00000      0.00000      0.00000
      0.00000      0.00000      0.00000
      0.00000      0.00000      0.00000
  FORCES: max atom, RMS     0.460450    0.282389
  FORCE total and by dimension    1.597434    0.456447
  Stress total and by dimension    0.000000    0.000000
     LOOP+:  cpu time     89.6003: real time     89.9722
    4ORBIT:  cpu time      0.0000: real time      0.0000

 total amount of memory used by VASP MPI-rank0    45495. kBytes
=======================================================================

   base      :      30000. kBytes
   nonl-proj :       2069. kBytes
   fftplans  :       1056. kBytes
   grid      :       1825. kBytes
   one-center:          3. kBytes
   wavefun   :      10542. kBytes

  
  
 General timing and accounting informations for this job:
 ========================================================
  
                  Total CPU time used (sec):      114.464
                            User time (sec):      111.680
                          System time (sec):        2.785
                         Elapsed time (sec):      119.011
  
                   Maximum memory used (kb):      303196.
                   Average memory used (kb):          N/A
  
                          Minor page faults:       157766
                          Major page faults:          300
                 Voluntary context switches:         6373
