 vasp.6.4.1 05Apr23 (build Jun  6 2023 14:36:51) complex                         
 executed on        HPECrayEX_GCC date 2024.08.20  14:43:31
 running  256 mpi-ranks, with    1 threads/rank, on    2 nodes
 distrk:  each k-point on  128 cores,    2 groups
 distr:  one band on NCORE=  32 cores,    4 groups


--------------------------------------------------------------------------------------------------------


 INCAR:
   ALGO = Conjugate
   KPAR = 2
   NCORE = 32
   ISMEAR = 0
   SIGMA = 0.01
   PREC = Accurate
   EDIFF = 1E-7
   ENCUT = 1000
   ISIF = 0
   METAGGA = R2SCAN
   LASPH = .TRUE.
   SYMPREC = 1E-7
   LWAVE = .FALSE.
   LCHARG = .FALSE.
   LWAVE = .FALSE.
   LCHARGE = .FALSE.

 POTCAR:    PAW_PBE C_h 06Feb2004                 
 POTCAR:    PAW_PBE H_h 06Feb2004                 
 POTCAR:    PAW_PBE O_h 06Feb2004                 
 POTCAR:    PAW_PBE C_h 06Feb2004                 
   VRHFIN =C: s2p2                                                                                  
   LEXCH  = PE                                                                                      
   EATOM  =   147.1560 eV,   10.8157 Ry                                                             
                                                                                                    
   TITEL  = PAW_PBE C_h 06Feb2004                                                                   
   LULTRA =        F    use ultrasoft PP ?                                                          
   IUNSCR =        1    unscreen: 0-lin 1-nonlin 2-no                                               
   RPACOR =    0.800    partial core radius                                                         
   POMASS =   12.011; ZVAL   =    4.000    mass and valenz                                          
   RCORE  =    1.100    outmost cutoff radius                                                       
   RWIGS  =    1.630; RWIGS  =    0.863    wigner-seitz radius (au A)                               
   ENMAX  =  700.000; ENMIN  =  500.000 eV                                                          
   ICORE  =        2    local potential                                                             
   LCOR   =        T    correct aug charges                                                         
   LPAW   =        T    paw PP                                                                      
   EAUG   =  946.768                                                                                
   DEXC   =    0.000                                                                                
   RMAX   =    1.128    core radius for proj-oper                                                   
   RAUG   =    1.300    factor for augmentation sphere                                              
   RDEP   =    1.162    radius for radial grids                                                     
   RDEPT  =    1.088    core radius for aug-charge                                                  
                                                                                                    
   Atomic configuration                                                                             
    4 entries                                                                                       
     n  l   j            E        occ.                                                              
     1  0  0.50      -273.3789   2.0000                                                             
     2  0  0.50       -13.7508   2.0000                                                             
     2  1  0.50        -5.2854   2.0000                                                             
     3  2  1.50        -5.4423   0.0000                                                             
   Description                                                                                      
     l       E           TYP  RCUT    TYP  RCUT                                                     
     0    -13.7508458     23  1.100                                                                 
     0     -8.2022199     23  1.100                                                                 
     1     -5.2854383     23  1.100                                                                 
     1      1.1560700     23  1.100                                                                 
     2     -5.4423304      7  1.100                                                                 
  local pseudopotential read in
  partial core-charges read in
  partial kinetic energy density read in
  atomic valenz-charges read in
  non local Contribution for L=           0  read in
    real space projection operators read in
  non local Contribution for L=           0  read in
    real space projection operators read in
  non local Contribution for L=           1  read in
    real space projection operators read in
  non local Contribution for L=           1  read in
    real space projection operators read in
    PAW grid and wavefunctions read in

   number of l-projection  operators is LMAX  =           4
   number of lm-projection operators is LMMAX =           8

 POTCAR:    PAW_PBE H_h 06Feb2004                 
   VRHFIN =H: ultrasoft test                                                                        
   LEXCH  = PE                                                                                      
   EATOM  =    12.4884 eV,    0.9179 Ry                                                             
                                                                                                    
   TITEL  = PAW_PBE H_h 06Feb2004                                                                   
   LULTRA =        F    use ultrasoft PP ?                                                          
   IUNSCR =        0    unscreen: 0-lin 1-nonlin 2-no                                               
   RPACOR =    0.000    partial core radius                                                         
   POMASS =    1.000; ZVAL   =    1.000    mass and valenz                                          
   RCORE  =    0.800    outmost cutoff radius                                                       
   RWIGS  =    0.700; RWIGS  =    0.370    wigner-seitz radius (au A)                               
   ENMAX  =  700.000; ENMIN  =  350.000 eV                                                          
   RCLOC  =    0.701    cutoff for local pot                                                        
   LCOR   =        T    correct aug charges                                                         
   LPAW   =        T    paw PP                                                                      
   EAUG   = 1000.000                                                                                
   RMAX   =    0.819    core radius for proj-oper                                                   
   RAUG   =    1.000    factor for augmentation sphere                                              
   RDEP   =    0.817    radius for radial grids                                                     
   RDEPT  =    0.817    core radius for aug-charge                                                  
                                                                                                    
   Atomic configuration                                                                             
    2 entries                                                                                       
     n  l   j            E        occ.                                                              
     1  0  0.50        -6.4927   1.0000                                                             
     2  1  0.50        -3.4015   0.0000                                                             
   Description                                                                                      
     l       E           TYP  RCUT    TYP  RCUT                                                     
     0     -6.4927493     23  0.800                                                                 
     0      6.8029130     23  0.800                                                                 
     1     -6.8029130     23  0.800                                                                 
  local pseudopotential read in
  atomic valenz-charges read in
  non local Contribution for L=           0  read in
    real space projection operators read in
  non local Contribution for L=           0  read in
    real space projection operators read in
  non local Contribution for L=           1  read in
    real space projection operators read in
    PAW grid and wavefunctions read in

   number of l-projection  operators is LMAX  =           3
   number of lm-projection operators is LMMAX =           5

 POTCAR:    PAW_PBE O_h 06Feb2004                 
   VRHFIN =O: s2p4                                                                                  
   LEXCH  = PE                                                                                      
   EATOM  =   432.3788 eV,   31.7789 Ry                                                             
                                                                                                    
   TITEL  = PAW_PBE O_h 06Feb2004                                                                   
   LULTRA =        F    use ultrasoft PP ?                                                          
   IUNSCR =        1    unscreen: 0-lin 1-nonlin 2-no                                               
   RPACOR =    0.800    partial core radius                                                         
   POMASS =   16.000; ZVAL   =    6.000    mass and valenz                                          
   RCORE  =    1.100    outmost cutoff radius                                                       
   RWIGS  =    1.400; RWIGS  =    0.741    wigner-seitz radius (au A)                               
   ENMAX  =  700.000; ENMIN  =  500.000 eV                                                          
   ICORE  =        2    local potential                                                             
   LCOR   =        T    correct aug charges                                                         
   LPAW   =        T    paw PP                                                                      
   EAUG   =  888.804                                                                                
   DEXC   =    0.000                                                                                
   RMAX   =    1.128    core radius for proj-oper                                                   
   RAUG   =    1.300    factor for augmentation sphere                                              
   RDEP   =    1.125    radius for radial grids                                                     
   RDEPT  =    1.088    core radius for aug-charge                                                  
                                                                                                    
   Atomic configuration                                                                             
    4 entries                                                                                       
     n  l   j            E        occ.                                                              
     1  0  0.50      -514.6923   2.0000                                                             
     2  0  0.50       -23.9615   2.0000                                                             
     2  1  0.50        -9.0305   4.0000                                                             
     3  2  1.50        -9.5241   0.0000                                                             
   Description                                                                                      
     l       E           TYP  RCUT    TYP  RCUT                                                     
     0    -23.9615319     23  1.100                                                                 
     0    -25.3221145     23  1.100                                                                 
     1     -9.0304911     23  1.100                                                                 
     1     -5.4802209     23  1.100                                                                 
     2     -9.5240782      7  1.100                                                                 
  local pseudopotential read in
  partial core-charges read in
  partial kinetic energy density read in
  atomic valenz-charges read in
  non local Contribution for L=           0  read in
    real space projection operators read in
  non local Contribution for L=           0  read in
    real space projection operators read in
  non local Contribution for L=           1  read in
    real space projection operators read in
  non local Contribution for L=           1  read in
    real space projection operators read in
    PAW grid and wavefunctions read in

   number of l-projection  operators is LMAX  =           4
   number of lm-projection operators is LMMAX =           8

 -----------------------------------------------------------------------------
|                                                                             |
|               ----> ADVICE to this user running VASP <----                  |
|                                                                             |
|     You have a (more or less) 'large supercell' and for larger cells it     |
|     might be more efficient to use real-space projection operators.         |
|     Therefore, try LREAL= Auto in the INCAR file.                           |
|     Mind: For very accurate calculation, you might also keep the            |
|     reciprocal projection scheme (i.e. LREAL=.FALSE.).                      |
|                                                                             |
 -----------------------------------------------------------------------------

  PAW_PBE C_h 06Feb2004                 :
 energy of atom  1       EATOM= -147.1560
 kinetic energy error for atom=    0.0031 (will be added to EATOM!!)
  PAW_PBE H_h 06Feb2004                 :
 energy of atom  2       EATOM=  -12.4884
 kinetic energy error for atom=    0.0006 (will be added to EATOM!!)
  PAW_PBE O_h 06Feb2004                 :
 energy of atom  3       EATOM= -432.3788
 kinetic energy error for atom=    0.0171 (will be added to EATOM!!)


 POSCAR:  C  H  O
  positions in cartesian coordinates
  No initial velocities read in

 METAGGA = R2SCAN                                      LMAXTAU =  6    LMIXTAU =  F

 exchange correlation table for  LEXCH =        8
   RHO(1)=    0.500       N(1)  =     2000
   RHO(2)=  100.500       N(2)  =     4000

 VTST: version 4.1, (05/19/21)

 CHAIN: initializing optimizer
 
 OPT: Using VASP Dynamics algorithm
 CHAIN: Read ICHAIN            0

 POSCAR:  C  H  O
  positions in cartesian coordinates
  No initial velocities read in



--------------------------------------------------------------------------------------------------------


 ion  position               nearest neighbor table
   1  0.057  0.055  0.915-  17 1.22  18 1.31   2 1.55
   2  0.943  0.945  0.085-  19 1.22  20 1.31   1 1.55
   3  0.443  0.055  0.415-  21 1.22  27 1.31   6 1.55
   4  0.557  0.445  0.915-  22 1.22  28 1.31   7 1.55
   5  0.943  0.445  0.415-  23 1.22  29 1.31   8 1.55
   6  0.557  0.945  0.585-  24 1.22  30 1.31   3 1.55
   7  0.443  0.555  0.085-  25 1.22  31 1.31   4 1.55
   8  0.057  0.555  0.585-  26 1.22  32 1.31   5 1.55
   9  0.096  0.296  0.844-  18 1.01
  10  0.904  0.704  0.156-  20 1.01
  11  0.404  0.296  0.344-  27 1.01
  12  0.596  0.204  0.844-  28 1.01
  13  0.904  0.204  0.344-  29 1.01
  14  0.596  0.704  0.656-  30 1.01
  15  0.404  0.796  0.156-  31 1.01
  16  0.096  0.796  0.656-  32 1.01
  17  0.157  0.993  0.765-   1 1.22
  18  0.031  0.218  0.955-   9 1.01   1 1.31
  19  0.843  0.007  0.235-   2 1.22
  20  0.969  0.782  0.045-  10 1.01   2 1.31
  21  0.343  0.993  0.265-   3 1.22
  22  0.657  0.507  0.765-   4 1.22
  23  0.843  0.507  0.265-   5 1.22
  24  0.657  0.007  0.735-   6 1.22
  25  0.343  0.493  0.235-   7 1.22
  26  0.157  0.493  0.735-   8 1.22
  27  0.469  0.218  0.455-  11 1.01   3 1.31
  28  0.531  0.282  0.955-  12 1.01   4 1.31
  29  0.969  0.282  0.455-  13 1.01   5 1.31
  30  0.531  0.782  0.545-  14 1.01   6 1.31
  31  0.469  0.718  0.045-  15 1.01   7 1.31
  32  0.031  0.718  0.545-  16 1.01   8 1.31

  LATTYP: Found a simple orthorhombic cell.
 ALAT       =     6.0860000000
 B/A-ratio  =     1.0759119290
 C/A-ratio  =     1.2888596779
  
  Lattice vectors:
  
 A1 = (   0.0000000000,   0.0000000000,   6.0860000000)
 A2 = (   6.5480000000,   0.0000000000,   0.0000000000)
 A3 = (   0.0000000000,   7.8440000000,   0.0000000000)


Analysis of symmetry for initial positions (statically):
=====================================================================
 Subroutine PRICEL returns:
 Original cell was already a primitive cell.
 

 Routine SETGRP: Setting up the symmetry group for a 
 simple orthorhombic supercell.


 Subroutine GETGRP returns: Found  2 space group operations
 (whereof  2 operations were pure point group operations)
 out of a pool of  8 trial point group operations.


The static configuration has the point symmetry S_2 .


Analysis of symmetry for dynamics (positions and initial velocities):
=====================================================================
 Subroutine PRICEL returns:
 Original cell was already a primitive cell.
 

 Routine SETGRP: Setting up the symmetry group for a 
 simple orthorhombic supercell.


 Subroutine GETGRP returns: Found  2 space group operations
 (whereof  2 operations were pure point group operations)
 out of a pool of  8 trial point group operations.


The dynamic configuration has the point symmetry S_2 .


 Subroutine INISYM returns: Found  2 space group operations
 (whereof  2 operations are pure point group operations),
 and found     1 'primitive' translations


----------------------------------------------------------------------------------------

                                     Primitive cell                                     

  volume of cell :     312.5922

  direct lattice vectors                    reciprocal lattice vectors
     6.548000000  0.000000000  0.000000000     0.152718387  0.000000000  0.000000000
     0.000000000  7.844000000  0.000000000     0.000000000  0.127485977  0.000000000
     0.000000000  0.000000000  6.086000000     0.000000000  0.000000000  0.164311535

  length of vectors
     6.548000000  7.844000000  6.086000000     0.152718387  0.127485977  0.164311535

  position of ions in fractional coordinates (direct lattice)
     0.057396641  0.055115644  0.914745396
     0.942603359  0.944884356  0.085254604
     0.442603369  0.055115663  0.414745392
     0.557396653  0.444884317  0.914745444
     0.942603382  0.444884330  0.414745407
     0.557396631  0.944884337  0.585254608
     0.442603347  0.555115683  0.085254556
     0.057396618  0.555115670  0.585254593
     0.096234730  0.295567034  0.843783748
     0.903765270  0.704432966  0.156216252
     0.403765238  0.295567045  0.343783845
     0.596234803  0.204432954  0.843783826
     0.903765242  0.204432941  0.343783858
     0.596234762  0.704432955  0.656216155
     0.403765197  0.795567046  0.156216174
     0.096234758  0.795567059  0.656216142
     0.157124606  0.992857540  0.764594901
     0.030544588  0.218035634  0.955022064
     0.842875394  0.007142460  0.235405099
     0.969455412  0.781964365  0.044977936
     0.342875508  0.992857631  0.264594851
     0.657124617  0.507142400  0.764594939
     0.842875492  0.507142430  0.264594884
     0.657124492  0.007142369  0.735405149
     0.342875384  0.492857600  0.235405061
     0.157124508  0.492857570  0.735405116
     0.469455363  0.218035684  0.455022222
     0.530544586  0.281964313  0.955022171
     0.969455403  0.281964334  0.455022213
     0.530544637  0.781964316  0.544977778
     0.469455414  0.718035687  0.044977829
     0.030544597  0.718035666  0.544977787

  ion indices of the primitive-cell ions
   primitive index   ion index
                 1           1
                 2           2
                 3           3
                 4           4
                 5           5
                 6           6
                 7           7
                 8           8
                 9           9
                10          10
                11          11
                12          12
                13          13
                14          14
                15          15
                16          16
                17          17
                18          18
                19          19
                20          20
                21          21
                22          22
                23          23
                24          24
                25          25
                26          26
                27          27
                28          28
                29          29
                30          30
                31          31
                32          32

----------------------------------------------------------------------------------------



 KPOINTS: auto                                    

Automatic generation of k-mesh.
 Grid dimensions read from file:
 generate k-points for:    4    3    4

 Generating k-lattice:

  Cartesian coordinates                     Fractional coordinates (reciprocal lattice)
     0.038179597  0.000000000  0.000000000     0.250000000  0.000000000  0.000000000
     0.000000000  0.042495326  0.000000000     0.000000000  0.333333333  0.000000000
     0.000000000  0.000000000  0.041077884     0.000000000  0.000000000  0.250000000

  Length of vectors
     0.038179597  0.042495326  0.041077884

  Shift w.r.t. Gamma in fractional coordinates (k-lattice)
     0.000000000  0.000000000  0.000000000

 
 Subroutine IBZKPT returns following result:
 ===========================================
 
 Found     26 irreducible k-points:
 
 Following reciprocal coordinates:
            Coordinates               Weight
  0.000000  0.000000  0.000000      1.000000
  0.250000  0.000000  0.000000      2.000000
  0.500000  0.000000  0.000000      1.000000
  0.000000  0.333333  0.000000      2.000000
  0.250000  0.333333  0.000000      2.000000
  0.250000 -0.333333  0.000000      2.000000
  0.500000  0.333333  0.000000      2.000000
  0.000000  0.000000  0.250000      2.000000
  0.250000  0.000000  0.250000      2.000000
 -0.250000  0.000000  0.250000      2.000000
  0.500000  0.000000  0.250000      2.000000
  0.000000  0.333333  0.250000      2.000000
  0.000000 -0.333333  0.250000      2.000000
  0.250000  0.333333  0.250000      2.000000
 -0.250000 -0.333333  0.250000      2.000000
  0.250000 -0.333333 -0.250000      2.000000
 -0.250000  0.333333 -0.250000      2.000000
  0.500000  0.333333  0.250000      2.000000
  0.500000 -0.333333  0.250000      2.000000
  0.000000  0.000000  0.500000      1.000000
  0.250000  0.000000  0.500000      2.000000
  0.500000  0.000000  0.500000      1.000000
  0.000000  0.333333  0.500000      2.000000
  0.250000  0.333333  0.500000      2.000000
  0.250000 -0.333333  0.500000      2.000000
  0.500000  0.333333  0.500000      2.000000
 
 Following cartesian coordinates:
            Coordinates               Weight
  0.000000  0.000000  0.000000      1.000000
  0.038180  0.000000  0.000000      2.000000
  0.076359  0.000000  0.000000      1.000000
  0.000000  0.042495  0.000000      2.000000
  0.038180  0.042495  0.000000      2.000000
  0.038180 -0.042495  0.000000      2.000000
  0.076359  0.042495  0.000000      2.000000
  0.000000  0.000000  0.041078      2.000000
  0.038180  0.000000  0.041078      2.000000
 -0.038180  0.000000  0.041078      2.000000
  0.076359  0.000000  0.041078      2.000000
  0.000000  0.042495  0.041078      2.000000
  0.000000 -0.042495  0.041078      2.000000
  0.038180  0.042495  0.041078      2.000000
 -0.038180 -0.042495  0.041078      2.000000
  0.038180 -0.042495 -0.041078      2.000000
 -0.038180  0.042495 -0.041078      2.000000
  0.076359  0.042495  0.041078      2.000000
  0.076359 -0.042495  0.041078      2.000000
  0.000000  0.000000  0.082156      1.000000
  0.038180  0.000000  0.082156      2.000000
  0.076359  0.000000  0.082156      1.000000
  0.000000  0.042495  0.082156      2.000000
  0.038180  0.042495  0.082156      2.000000
  0.038180 -0.042495  0.082156      2.000000
  0.076359  0.042495  0.082156      2.000000
 


--------------------------------------------------------------------------------------------------------




 Dimension of arrays:
   k-points           NKPTS =     26   k-points in BZ     NKDIM =     26   number of bands    NBANDS=     88
   number of dos      NEDOS =    301   number of ions     NIONS =     32
   non local maximal  LDIM  =      4   non local SUM 2l+1 LMDIM =      8
   total plane-waves  NPLWV = 376320
   max r-space proj   IRMAX =      1   max aug-charges    IRDMAX=   8978
   dimension x,y,z NGX =    70 NGY =   84 NGZ =   64
   dimension x,y,z NGXF=   140 NGYF=  168 NGZF=  128
   support grid    NGXF=   140 NGYF=  168 NGZF=  128
   ions per type =               8   8  16
   NGX,Y,Z   is equivalent  to a cutoff of  17.77, 17.80, 17.48 a.u.
   NGXF,Y,Z  is equivalent  to a cutoff of  35.54, 35.61, 34.96 a.u.

 SYSTEM =  unknown system                          
 POSCAR =   C  H  O                                

 Startparameter for this run:
   NWRITE =      2    write-flag & timer
   PREC   = accura    normal or accurate (medium, high low for compatibility)
   ISTART =      0    job   : 0-new  1-cont  2-samecut
   ICHARG =      2    charge: 1-file 2-atom 10-const
   ISPIN  =      1    spin polarized calculation?
   LNONCOLLINEAR =      F non collinear calculations
   LSORBIT =      F    spin-orbit coupling
   INIWAV =      1    electr: 0-lowe 1-rand  2-diag
   LASPH  =      T    aspherical Exc in radial PAW
 Electronic Relaxation 1
   ENCUT  = 1000.0 eV  73.50 Ry    8.57 a.u.  16.88 20.23 15.69*2*pi/ulx,y,z
   ENINI  = 1000.0     initial cutoff
   ENAUG  = 1000.0 eV  augmentation charge cutoff
   NELM   =     60;   NELMIN=  2; NELMDL= -5     # of ELM steps 
   EDIFF  = 0.1E-06   stopping-criterion for ELM
   LREAL  =      F    real-space projection
   NLSPLINE    = F    spline interpolate recip. space projectors
   LCOMPAT=      F    compatible to vasp.4.4
   GGA_COMPAT  = T    GGA compatible to vasp.4.4-vasp.4.6
   LMAXPAW     = -100 max onsite density
   LMAXMIX     =    2 max onsite mixed and CHGCAR
   VOSKOWN=      0    Vosko Wilk Nusair interpolation
   ROPT   =    0.00000   0.00000   0.00000
 Ionic relaxation
   EDIFFG = 0.1E-05   stopping-criterion for IOM
   NSW    =      0    number of steps for IOM
   NBLOCK =      1;   KBLOCK =      1    inner block; outer block 
   IBRION =     -1    ionic relax: 0-MD 1-quasi-New 2-CG
   NFREE  =      0    steps in history (QN), initial steepest desc. (CG)
   ISIF   =      0    stress and relaxation
   IWAVPR =     10    prediction:  0-non 1-charg 2-wave 3-comb
   ISYM   =      2    0-nonsym 1-usesym 2-fastsym
   LCORR  =      T    Harris-Foulkes like correction to forces

   POTIM  = 0.5000    time-step for ionic-motion
   TEIN   =    0.0    initial temperature
   TEBEG  =    0.0;   TEEND  =   0.0 temperature during run
   SMASS  =  -3.00    Nose mass-parameter (am)
   estimated Nose-frequenzy (Omega)   =  0.10E-29 period in steps = 0.13E+47 mass=  -0.980E-27a.u.
   SCALEE = 1.0000    scale energy and forces
   NPACO  =    256;   APACO  = 10.0  distance and # of slots for P.C.
   PSTRESS=    0.0 pullay stress

  Mass of Ions in am
   POMASS =  12.01  1.00 16.00
  Ionic Valenz
   ZVAL   =   4.00  1.00  6.00
  Atomic Wigner-Seitz radii
   RWIGS  =  -1.00 -1.00 -1.00
  virtual crystal weights 
   VCA    =   1.00  1.00  1.00
   NELECT =     136.0000    total number of electrons
   NUPDOWN=      -1.0000    fix difference up-down

 DOS related values:
   EMIN   =  10.00;   EMAX   =-10.00  energy-range for DOS
   EFERMI =   0.00;   METHOD = LEGACY      
   ISMEAR =     0;   SIGMA  =   0.01  broadening in eV -4-tet -1-fermi 0-gaus

 Electronic relaxation 2 (details)
   IALGO  =     58    algorithm
   LDIAG  =      T    sub-space diagonalisation (order eigenvalues)
   LSUBROT=      F    optimize rotation matrix (better conditioning)
   TURBO    =      0    0=normal 1=particle mesh
   IRESTART =      0    0=no restart 2=restart with 2 vectors
   NREBOOT  =      0    no. of reboots
   NMIN     =      0    reboot dimension
   EREF     =   0.00    reference energy to select bands
   IMIX   =      4    mixing-type and parameters
     AMIX     =   0.40;   BMIX     =  1.00
     AMIX_MAG =   1.60;   BMIX_MAG =  1.00
     AMIN     =   0.10
     WC   =   100.;   INIMIX=   1;  MIXPRE=   1;  MAXMIX= -45

 Intra band minimization:
   WEIMIN = 0.0000     energy-eigenvalue tresh-hold
   EBREAK =  0.28E-09  absolut break condition
   DEPER  =   0.30     relativ break condition  

   TIME   =   0.40     timestep for ELM

  volume/ion in A,a.u.               =       9.77        65.92
  Fermi-wavevector in a.u.,A,eV,Ry     =   1.240495  2.344196 20.937029  1.538828
  Thomas-Fermi vector in A             =   2.374933

 Write flags
   LWAVE        =      F    write WAVECAR
   LDOWNSAMPLE  =      F    k-point downsampling of WAVECAR
   LCHARG       =      F    write CHGCAR
   LVTOT        =      F    write LOCPOT, total local potential
   LVHAR        =      F    write LOCPOT, Hartree potential only
   LELF         =      F    write electronic localiz. function (ELF)
   LORBIT       =      0    0 simple, 1 ext, 2 COOP (PROOUT), +10 PAW based schemes


 Dipole corrections
   LMONO  =      F    monopole corrections only (constant potential shift)
   LDIPOL =      F    correct potential (dipole corrections)
   IDIPOL =      0    1-x, 2-y, 3-z, 4-all directions 
   EPSILON=  1.0000000 bulk dielectric constant

 Exchange correlation treatment:
   GGA     =    --    GGA type
   LEXCH   =     8    internal setting for exchange type
   LIBXC   =     F    Libxc                    
   VOSKOWN =     0    Vosko Wilk Nusair interpolation
   LHFCALC =     F    Hartree Fock is set to
   LHFONE  =     F    Hartree Fock one center treatment
   AEXX    =    0.0000 exact exchange contribution

 Linear response parameters
   LEPSILON=     F    determine dielectric tensor
   LRPA    =     F    only Hartree local field effects (RPA)
   LNABLA  =     F    use nabla operator in PAW spheres
   LVEL    =     F    velocity operator in full k-point grid
   CSHIFT  =0.1000    complex shift for real part using Kramers Kronig
   OMEGAMAX=  -1.0    maximum frequency
   DEG_THRESHOLD= 0.2000000E-02 threshold for treating states as degnerate
   RTIME   =   -0.100 relaxation time in fs
  (WPLASMAI=    0.000 imaginary part of plasma frequency in eV, 0.658/RTIME)
   DFIELD  = 0.0000000 0.0000000 0.0000000 field for delta impulse in time

  Optional k-point grid parameters
   LKPOINTS_OPT  =     F    use optional k-point grid
   KPOINTS_OPT_MODE=     1    mode for optional k-point grid

 Orbital magnetization related:
   ORBITALMAG=     F  switch on orbital magnetization
   LCHIMAG   =     F  perturbation theory with respect to B field
   DQ        =  0.001000  dq finite difference perturbation B field
   LLRAUG    =     F  two centre corrections for induced B field
   LBONE     =     F  B-component reconstruction in AE one-centre
   LVGVCALC  =     T  calculate vGv susceptibility
   LVGVAPPL  =     F  apply vGv susceptibility instead of pGv for G=0

 Random number generation:
   RANDOM_GENERATOR = DEFAULT
   PCG_SEED         = not used


--------------------------------------------------------------------------------------------------------


 Static calculation
 charge density and potential will be updated during run
 non-spin polarized calculation
 Conjugate gradient for all bands (Freysoldt, et al. PRB 79, 241103 (2009))
 preconditioned conjugated gradient                                        
 perform sub-space diagonalisation
    before iterative eigenvector-optimisation
 modified Broyden-mixing scheme, WC =      100.0
 initial mixing is a Kerker type mixing with AMIX =  0.4000 and BMIX =      1.0000
 Hartree-type preconditioning will be used
 using additional bands           20
 reciprocal scheme for non local part
 use partial core corrections
 no Harris-corrections to forces 
 use gradient corrections 
 use of overlap-Matrix (Vanderbilt PP)
 Gauss-broadening in eV      SIGMA  =   0.01


--------------------------------------------------------------------------------------------------------


  energy-cutoff  :     1000.00
  volume of cell :      312.59
      direct lattice vectors                 reciprocal lattice vectors
     6.548000000  0.000000000  0.000000000     0.152718387  0.000000000  0.000000000
     0.000000000  7.844000000  0.000000000     0.000000000  0.127485977  0.000000000
     0.000000000  0.000000000  6.086000000     0.000000000  0.000000000  0.164311535

  length of vectors
     6.548000000  7.844000000  6.086000000     0.152718387  0.127485977  0.164311535



 k-points in units of 2pi/SCALE and weight: auto                                    
   0.00000000  0.00000000  0.00000000       0.021
   0.03817960  0.00000000  0.00000000       0.042
   0.07635919  0.00000000  0.00000000       0.021
   0.00000000  0.04249533  0.00000000       0.042
   0.03817960  0.04249533  0.00000000       0.042
   0.03817960 -0.04249533  0.00000000       0.042
   0.07635919  0.04249533  0.00000000       0.042
   0.00000000  0.00000000  0.04107788       0.042
   0.03817960  0.00000000  0.04107788       0.042
  -0.03817960  0.00000000  0.04107788       0.042
   0.07635919  0.00000000  0.04107788       0.042
   0.00000000  0.04249533  0.04107788       0.042
   0.00000000 -0.04249533  0.04107788       0.042
   0.03817960  0.04249533  0.04107788       0.042
  -0.03817960 -0.04249533  0.04107788       0.042
   0.03817960 -0.04249533 -0.04107788       0.042
  -0.03817960  0.04249533 -0.04107788       0.042
   0.07635919  0.04249533  0.04107788       0.042
   0.07635919 -0.04249533  0.04107788       0.042
   0.00000000  0.00000000  0.08215577       0.021
   0.03817960  0.00000000  0.08215577       0.042
   0.07635919  0.00000000  0.08215577       0.021
   0.00000000  0.04249533  0.08215577       0.042
   0.03817960  0.04249533  0.08215577       0.042
   0.03817960 -0.04249533  0.08215577       0.042
   0.07635919  0.04249533  0.08215577       0.042

 k-points in reciprocal lattice and weights: auto                                    
   0.00000000  0.00000000  0.00000000       0.021
   0.25000000  0.00000000  0.00000000       0.042
   0.50000000  0.00000000  0.00000000       0.021
   0.00000000  0.33333333  0.00000000       0.042
   0.25000000  0.33333333  0.00000000       0.042
   0.25000000 -0.33333333  0.00000000       0.042
   0.50000000  0.33333333  0.00000000       0.042
   0.00000000  0.00000000  0.25000000       0.042
   0.25000000  0.00000000  0.25000000       0.042
  -0.25000000  0.00000000  0.25000000       0.042
   0.50000000  0.00000000  0.25000000       0.042
   0.00000000  0.33333333  0.25000000       0.042
   0.00000000 -0.33333333  0.25000000       0.042
   0.25000000  0.33333333  0.25000000       0.042
  -0.25000000 -0.33333333  0.25000000       0.042
   0.25000000 -0.33333333 -0.25000000       0.042
  -0.25000000  0.33333333 -0.25000000       0.042
   0.50000000  0.33333333  0.25000000       0.042
   0.50000000 -0.33333333  0.25000000       0.042
   0.00000000  0.00000000  0.50000000       0.021
   0.25000000  0.00000000  0.50000000       0.042
   0.50000000  0.00000000  0.50000000       0.021
   0.00000000  0.33333333  0.50000000       0.042
   0.25000000  0.33333333  0.50000000       0.042
   0.25000000 -0.33333333  0.50000000       0.042
   0.50000000  0.33333333  0.50000000       0.042

 position of ions in fractional coordinates (direct lattice) 
   0.05739664  0.05511564  0.91474540
   0.94260336  0.94488436  0.08525460
   0.44260337  0.05511566  0.41474539
   0.55739665  0.44488432  0.91474544
   0.94260338  0.44488433  0.41474541
   0.55739663  0.94488434  0.58525461
   0.44260335  0.55511568  0.08525456
   0.05739662  0.55511567  0.58525459
   0.09623473  0.29556703  0.84378375
   0.90376527  0.70443297  0.15621625
   0.40376524  0.29556705  0.34378384
   0.59623480  0.20443295  0.84378383
   0.90376524  0.20443294  0.34378386
   0.59623476  0.70443295  0.65621616
   0.40376520  0.79556705  0.15621617
   0.09623476  0.79556706  0.65621614
   0.15712461  0.99285754  0.76459490
   0.03054459  0.21803563  0.95502206
   0.84287539  0.00714246  0.23540510
   0.96945541  0.78196437  0.04497794
   0.34287551  0.99285763  0.26459485
   0.65712462  0.50714240  0.76459494
   0.84287549  0.50714243  0.26459488
   0.65712449  0.00714237  0.73540515
   0.34287538  0.49285760  0.23540506
   0.15712451  0.49285757  0.73540512
   0.46945536  0.21803568  0.45502222
   0.53054459  0.28196431  0.95502217
   0.96945540  0.28196433  0.45502221
   0.53054464  0.78196432  0.54497778
   0.46945541  0.71803569  0.04497783
   0.03054460  0.71803567  0.54497779

 position of ions in cartesian coordinates  (Angst):
   0.37583320  0.43232711  5.56714048
   6.17216680  7.41167289  0.51885952
   2.89816686  0.43232726  2.52414046
   3.64983329  3.48967259  5.56714077
   6.17216695  3.48967268  2.52414055
   3.64983314  7.41167274  3.56185954
   2.89816671  4.35432741  0.51885923
   0.37583305  4.35432732  3.56185945
   0.63014501  2.31842781  5.13526789
   5.91785499  5.52557219  0.95073211
   2.64385478  2.31842790  2.09226848
   3.90414549  1.60357209  5.13526836
   5.91785480  1.60357199  2.09226856
   3.90414522  5.52557210  3.99373152
   2.64385451  6.24042791  0.95073164
   0.63014520  6.24042801  3.99373144
   1.02885192  7.78797454  4.65332457
   0.20000596  1.71027152  5.81226428
   5.51914808  0.05602546  1.43267543
   6.34799404  6.13372848  0.27373572
   2.24514883  7.78797525  1.61032426
   4.30285199  3.97802499  4.65332480
   5.51914872  3.97802522  1.61032446
   4.30285117  0.05602475  4.47567574
   2.24514801  3.86597501  1.43267520
   1.02885128  3.86597478  4.47567554
   3.07399372  1.71027191  2.76926524
   3.47400595  2.21172807  5.81226494
   6.34799398  2.21172823  2.76926519
   3.47400628  6.13372809  3.31673476
   3.07399405  5.63227193  0.27373506
   0.20000602  5.63227177  3.31673481



--------------------------------------------------------------------------------------------------------


 k-point   1 :   0.0000 0.0000 0.0000  plane waves:   22451
 k-point   2 :   0.2500 0.0000 0.0000  plane waves:   22472
 k-point   3 :   0.5000 0.0000 0.0000  plane waves:   22518
 k-point   4 :   0.0000 0.3333 0.0000  plane waves:   22402
 k-point   5 :   0.2500 0.3333 0.0000  plane waves:   22470
 k-point   6 :   0.2500-0.3333 0.0000  plane waves:   22470
 k-point   7 :   0.5000 0.3333 0.0000  plane waves:   22446
 k-point   8 :   0.0000 0.0000 0.2500  plane waves:   22453
 k-point   9 :   0.2500 0.0000 0.2500  plane waves:   22440
 k-point  10 :  -0.2500 0.0000 0.2500  plane waves:   22440
 k-point  11 :   0.5000 0.0000 0.2500  plane waves:   22450
 k-point  12 :   0.0000 0.3333 0.2500  plane waves:   22428
 k-point  13 :   0.0000-0.3333 0.2500  plane waves:   22428
 k-point  14 :   0.2500 0.3333 0.2500  plane waves:   22438
 k-point  15 :  -0.2500-0.3333 0.2500  plane waves:   22438
 k-point  16 :   0.2500-0.3333-0.2500  plane waves:   22438
 k-point  17 :  -0.2500 0.3333-0.2500  plane waves:   22438
 k-point  18 :   0.5000 0.3333 0.2500  plane waves:   22476
 k-point  19 :   0.5000-0.3333 0.2500  plane waves:   22476
 k-point  20 :   0.0000 0.0000 0.5000  plane waves:   22396
 k-point  21 :   0.2500 0.0000 0.5000  plane waves:   22434
 k-point  22 :   0.5000 0.0000 0.5000  plane waves:   22432
 k-point  23 :   0.0000 0.3333 0.5000  plane waves:   22476
 k-point  24 :   0.2500 0.3333 0.5000  plane waves:   22452
 k-point  25 :   0.2500-0.3333 0.5000  plane waves:   22452
 k-point  26 :   0.5000 0.3333 0.5000  plane waves:   22440

 maximum and minimum number of plane-waves per node :       727      670

 maximum number of plane-waves:     22518
 maximum index in each direction: 
   IXMAX=   17   IYMAX=   20   IZMAX=   15
   IXMIN=  -17   IYMIN=  -20   IZMIN=  -16


 parallel 3D FFT for wavefunctions:
    minimum data exchange during FFTs selected (reduces bandwidth)
 parallel 3D FFT for charge:
    minimum data exchange during FFTs selected (reduces bandwidth)


 total amount of memory used by VASP MPI-rank0    60050. kBytes
=======================================================================

   base      :      30000. kBytes
   nonl-proj :       3962. kBytes
   fftplans  :       1801. kBytes
   grid      :       4298. kBytes
   one-center:          3. kBytes
   wavefun   :      19986. kBytes

     INWAV:  cpu time      0.0002: real time      0.0004
 Broyden mixing: mesh for mixing (old mesh)
   NGX = 33   NGY = 41   NGZ = 31
  (NGX  =140   NGY  =168   NGZ  =128)
  gives a total of  41943 points

 initial charge density was supplied:
 charge density of overlapping atoms calculated
 number of electron     136.0000000 magnetization 
 keeping initial charge density in first step


--------------------------------------------------------------------------------------------------------


 Maximum index for augmentation-charges          766 (set IRDMAX)


--------------------------------------------------------------------------------------------------------


 First call to EWALD:  gamma=   0.261
 Maximum number of real-space cells 3x 2x 3
 Maximum number of reciprocal cells 3x 3x 3

    FEWALD:  cpu time      0.0027: real time      0.0027


--------------------------------------- Ionic step        1  -------------------------------------------




--------------------------------------- Iteration      1(   1)  ---------------------------------------


    POTLOK:  cpu time      0.1009: real time      0.1013
    SETDIJ:  cpu time      0.2628: real time      0.2628
    TRIAL :  cpu time      3.5337: real time      3.5363
    CORREC:  cpu time      0.0014: real time      0.0014
    --------------------------------------------
      LOOP:  cpu time      3.9139: real time      3.9169

 eigenvalue-minimisations  :  4576
 total energy-change (2. order) : 0.1402890E+04  (-0.1111516E+05)
 number of electron     136.0000000 magnetization 
 augmentation part      136.0000000 magnetization 

 Free energy of the ion-electron system (eV)
  ---------------------------------------------------
  alpha Z        PSCENC =       164.42561539
  Ewald energy   TEWEN  =     -4769.51426773
  -Hartree energ DENC   =     -2893.12250234
  -exchange      EXHF   =         0.00000000
  -V(xc)+E(xc)   XCENC  =       623.06689588
  PAW double counting   =      6339.72852744    -6378.33795114
  entropy T*S    EENTRO =        -0.00087536
  eigenvalues    EBANDS =       121.73097341
  atomic energy  EATOM  =      8194.91340981
  ---------------------------------------------------
  free energy    TOTEN  =      1402.88982538 eV

  energy without entropy =     1402.89070074  energy(sigma->0) =     1402.89026306


--------------------------------------------------------------------------------------------------------




--------------------------------------- Iteration      1(   2)  ---------------------------------------


    TRIAL :  cpu time      4.1473: real time      4.1487
    CORREC:  cpu time      0.0004: real time      0.0004
    --------------------------------------------
      LOOP:  cpu time      4.1630: real time      4.1800

 eigenvalue-minimisations  :  6120
 total energy-change (2. order) :-0.1481297E+04  (-0.1430134E+04)
 number of electron     136.0000000 magnetization 
 augmentation part      136.0000000 magnetization 

 Free energy of the ion-electron system (eV)
  ---------------------------------------------------
  alpha Z        PSCENC =       164.42561539
  Ewald energy   TEWEN  =     -4769.51426773
  -Hartree energ DENC   =     -2893.12250234
  -exchange      EXHF   =         0.00000000
  -V(xc)+E(xc)   XCENC  =       623.06689588
  PAW double counting   =      6339.72852744    -6378.33795114
  entropy T*S    EENTRO =        -0.00000000
  eigenvalues    EBANDS =     -1359.56738835
  atomic energy  EATOM  =      8194.91340981
  ---------------------------------------------------
  free energy    TOTEN  =       -78.40766103 eV

  energy without entropy =      -78.40766103  energy(sigma->0) =      -78.40766103


--------------------------------------------------------------------------------------------------------




--------------------------------------- Iteration      1(   3)  ---------------------------------------


    TRIAL :  cpu time      3.8608: real time      3.8629
    CORREC:  cpu time      0.0008: real time      0.0008
    --------------------------------------------
      LOOP:  cpu time      3.8772: real time      3.8942

 eigenvalue-minimisations  :  5464
 total energy-change (2. order) :-0.2132504E+03  (-0.2106450E+03)
 number of electron     136.0000000 magnetization 
 augmentation part      136.0000000 magnetization 

 Free energy of the ion-electron system (eV)
  ---------------------------------------------------
  alpha Z        PSCENC =       164.42561539
  Ewald energy   TEWEN  =     -4769.51426773
  -Hartree energ DENC   =     -2893.12250234
  -exchange      EXHF   =         0.00000000
  -V(xc)+E(xc)   XCENC  =       623.06689588
  PAW double counting   =      6339.72852744    -6378.33795114
  entropy T*S    EENTRO =        -0.00000000
  eigenvalues    EBANDS =     -1572.81774896
  atomic energy  EATOM  =      8194.91340981
  ---------------------------------------------------
  free energy    TOTEN  =      -291.65802164 eV

  energy without entropy =     -291.65802164  energy(sigma->0) =     -291.65802164


--------------------------------------------------------------------------------------------------------




--------------------------------------- Iteration      1(   4)  ---------------------------------------


    TRIAL :  cpu time      3.9728: real time      3.9745
    CORREC:  cpu time      0.0007: real time      0.0007
    --------------------------------------------
      LOOP:  cpu time      3.9883: real time      4.0053

 eigenvalue-minimisations  :  5808
 total energy-change (2. order) :-0.7220538E+01  (-0.7180378E+01)
 number of electron     136.0000000 magnetization 
 augmentation part      136.0000000 magnetization 

 Free energy of the ion-electron system (eV)
  ---------------------------------------------------
  alpha Z        PSCENC =       164.42561539
  Ewald energy   TEWEN  =     -4769.51426773
  -Hartree energ DENC   =     -2893.12250234
  -exchange      EXHF   =         0.00000000
  -V(xc)+E(xc)   XCENC  =       623.06689588
  PAW double counting   =      6339.72852744    -6378.33795114
  entropy T*S    EENTRO =        -0.00000000
  eigenvalues    EBANDS =     -1580.03828688
  atomic energy  EATOM  =      8194.91340981
  ---------------------------------------------------
  free energy    TOTEN  =      -298.87855956 eV

  energy without entropy =     -298.87855956  energy(sigma->0) =     -298.87855956


--------------------------------------------------------------------------------------------------------




--------------------------------------- Iteration      1(   5)  ---------------------------------------


    TRIAL :  cpu time      3.8859: real time      3.8879
    CORREC:  cpu time      0.0007: real time      0.0007
    CHARGE:  cpu time      0.8259: real time      0.8281
    --------------------------------------------
      LOOP:  cpu time      4.7259: real time      4.7458

 eigenvalue-minimisations  :  5616
 total energy-change (2. order) :-0.2239152E+00  (-0.2237050E+00)
 number of electron     135.9999998 magnetization 
 augmentation part        0.8726757 magnetization 

 Free energy of the ion-electron system (eV)
  ---------------------------------------------------
  alpha Z        PSCENC =       164.42561539
  Ewald energy   TEWEN  =     -4769.51426773
  -Hartree energ DENC   =     -2893.12250234
  -exchange      EXHF   =         0.00000000
  -V(xc)+E(xc)   XCENC  =       623.06689588
  PAW double counting   =      6339.72852744    -6378.33795114
  entropy T*S    EENTRO =        -0.00000000
  eigenvalues    EBANDS =     -1580.26220212
  atomic energy  EATOM  =      8194.91340981
  ---------------------------------------------------
  free energy    TOTEN  =      -299.10247479 eV

  energy without entropy =     -299.10247479  energy(sigma->0) =     -299.10247479


--------------------------------------------------------------------------------------------------------




--------------------------------------- Iteration      1(   6)  ---------------------------------------


    POTLOK:  cpu time      0.0831: real time      0.0831
    SETDIJ:  cpu time      0.2573: real time      0.2574
    TRIAL :  cpu time      2.7115: real time      2.7142
    CORREC:  cpu time      1.8783: real time      1.8802
    CHARGE:  cpu time      0.7931: real time      0.7932
    --------------------------------------------
      LOOP:  cpu time      5.7351: real time      5.7572

 eigenvalue-minimisations  :     0
 total energy-change (2. order) : 0.7762200E+02  (-0.1353173E+02)
 number of electron     135.9999998 magnetization 
 augmentation part        0.6501583 magnetization 

 Free energy of the ion-electron system (eV)
  ---------------------------------------------------
  alpha Z        PSCENC =       164.42561539
  Ewald energy   TEWEN  =     -4769.51426773
  -Hartree energ DENC   =     -3427.85582273
  -exchange      EXHF   =         0.00000000
  -V(xc)+E(xc)   XCENC  =       684.41093109
  PAW double counting   =     89033.08655584   -89079.09782692
  entropy T*S    EENTRO =        -0.00000000
  eigenvalues    EBANDS =     -1021.84906497
  atomic energy  EATOM  =      8194.91340981
  ---------------------------------------------------
  free energy    TOTEN  =      -221.48047021 eV

  energy without entropy =     -221.48047021  energy(sigma->0) =     -221.48047021


--------------------------------------------------------------------------------------------------------




--------------------------------------- Iteration      1(   7)  ---------------------------------------


    POTLOK:  cpu time      0.0826: real time      0.0826
    SETDIJ:  cpu time      0.2565: real time      0.2567
    TRIAL :  cpu time      2.7282: real time      2.7290
    CORREC:  cpu time      1.8845: real time      1.8854
    CHARGE:  cpu time      0.7919: real time      0.7922
    --------------------------------------------
      LOOP:  cpu time      5.7551: real time      5.7747

 eigenvalue-minimisations  :     0
 total energy-change (2. order) :-0.1355472E+02  (-0.1722892E+01)
 number of electron     135.9999998 magnetization 
 augmentation part        0.5657328 magnetization 

 Free energy of the ion-electron system (eV)
  ---------------------------------------------------
  alpha Z        PSCENC =       164.42561539
  Ewald energy   TEWEN  =     -4769.51426773
  -Hartree energ DENC   =     -3165.06090208
  -exchange      EXHF   =         0.00000000
  -V(xc)+E(xc)   XCENC  =       661.44176302
  PAW double counting   =     98238.37015298   -98279.69006721
  entropy T*S    EENTRO =        -0.00000000
  eigenvalues    EBANDS =     -1279.92089664
  atomic energy  EATOM  =      8194.91340981
  ---------------------------------------------------
  free energy    TOTEN  =      -235.03519245 eV

  energy without entropy =     -235.03519245  energy(sigma->0) =     -235.03519245


--------------------------------------------------------------------------------------------------------




--------------------------------------- Iteration      1(   8)  ---------------------------------------


    POTLOK:  cpu time      0.0824: real time      0.0824
    SETDIJ:  cpu time      0.2580: real time      0.2580
    TRIAL :  cpu time      2.6630: real time      2.6641
    CORREC:  cpu time      1.8819: real time      1.8827
    CHARGE:  cpu time      0.7940: real time      0.7942
    --------------------------------------------
      LOOP:  cpu time      5.6935: real time      5.7108

 eigenvalue-minimisations  :     0
 total energy-change (2. order) :-0.1722923E+01  (-0.5037530E+00)
 number of electron     135.9999998 magnetization 
 augmentation part        0.6032328 magnetization 

 Free energy of the ion-electron system (eV)
  ---------------------------------------------------
  alpha Z        PSCENC =       164.42561539
  Ewald energy   TEWEN  =     -4769.51426773
  -Hartree energ DENC   =     -3172.07494156
  -exchange      EXHF   =         0.00000000
  -V(xc)+E(xc)   XCENC  =       661.20889420
  PAW double counting   =    100969.86890774  -101010.61747774
  entropy T*S    EENTRO =        -0.00000000
  eigenvalues    EBANDS =     -1274.96825546
  atomic energy  EATOM  =      8194.91340981
  ---------------------------------------------------
  free energy    TOTEN  =      -236.75811533 eV

  energy without entropy =     -236.75811533  energy(sigma->0) =     -236.75811533


--------------------------------------------------------------------------------------------------------




--------------------------------------- Iteration      1(   9)  ---------------------------------------


    POTLOK:  cpu time      0.0824: real time      0.0824
    SETDIJ:  cpu time      0.2571: real time      0.2571
    TRIAL :  cpu time      2.6751: real time      2.6765
    CORREC:  cpu time      1.9058: real time      1.9072
    CHARGE:  cpu time      0.7924: real time      0.7927
    --------------------------------------------
      LOOP:  cpu time      5.7261: real time      5.7438

 eigenvalue-minimisations  :     0
 total energy-change (2. order) :-0.5041463E+00  (-0.1395334E+00)
 number of electron     135.9999998 magnetization 
 augmentation part        0.6252717 magnetization 

 Free energy of the ion-electron system (eV)
  ---------------------------------------------------
  alpha Z        PSCENC =       164.42561539
  Ewald energy   TEWEN  =     -4769.51426773
  -Hartree energ DENC   =     -3177.49500145
  -exchange      EXHF   =         0.00000000
  -V(xc)+E(xc)   XCENC  =       661.50240846
  PAW double counting   =    104754.95874899  -104795.86795971
  entropy T*S    EENTRO =        -0.00000000
  eigenvalues    EBANDS =     -1270.18521540
  atomic energy  EATOM  =      8194.91340981
  ---------------------------------------------------
  free energy    TOTEN  =      -237.26226164 eV

  energy without entropy =     -237.26226164  energy(sigma->0) =     -237.26226164


--------------------------------------------------------------------------------------------------------




--------------------------------------- Iteration      1(  10)  ---------------------------------------


    POTLOK:  cpu time      0.0821: real time      0.0821
    SETDIJ:  cpu time      0.2571: real time      0.2571
    TRIAL :  cpu time      2.6894: real time      2.6908
    CORREC:  cpu time      1.8793: real time      1.8800
    CHARGE:  cpu time      0.7928: real time      0.7931
    --------------------------------------------
      LOOP:  cpu time      5.7141: real time      5.7355

 eigenvalue-minimisations  :     0
 total energy-change (2. order) :-0.1395789E+00  (-0.3841902E-01)
 number of electron     135.9999998 magnetization 
 augmentation part        0.6304463 magnetization 

 Free energy of the ion-electron system (eV)
  ---------------------------------------------------
  alpha Z        PSCENC =       164.42561539
  Ewald energy   TEWEN  =     -4769.51426773
  -Hartree energ DENC   =     -3169.55747773
  -exchange      EXHF   =         0.00000000
  -V(xc)+E(xc)   XCENC  =       660.93004394
  PAW double counting   =    106324.08103638  -106365.05333998
  entropy T*S    EENTRO =        -0.00000000
  eigenvalues    EBANDS =     -1277.62686063
  atomic energy  EATOM  =      8194.91340981
  ---------------------------------------------------
  free energy    TOTEN  =      -237.40184054 eV

  energy without entropy =     -237.40184054  energy(sigma->0) =     -237.40184054


--------------------------------------------------------------------------------------------------------




--------------------------------------- Iteration      1(  11)  ---------------------------------------


    POTLOK:  cpu time      0.0822: real time      0.0822
    SETDIJ:  cpu time      0.2568: real time      0.2571
    TRIAL :  cpu time      2.6672: real time      2.6681
    CORREC:  cpu time      1.8785: real time      1.8793
    CHARGE:  cpu time      0.8136: real time      0.8138
    --------------------------------------------
      LOOP:  cpu time      5.7091: real time      5.7294

 eigenvalue-minimisations  :     0
 total energy-change (2. order) :-0.3844656E-01  (-0.1055037E-01)
 number of electron     135.9999998 magnetization 
 augmentation part        0.6320596 magnetization 

 Free energy of the ion-electron system (eV)
  ---------------------------------------------------
  alpha Z        PSCENC =       164.42561539
  Ewald energy   TEWEN  =     -4769.51426773
  -Hartree energ DENC   =     -3168.86589098
  -exchange      EXHF   =         0.00000000
  -V(xc)+E(xc)   XCENC  =       660.89429618
  PAW double counting   =    106192.52279589  -106233.53474455
  entropy T*S    EENTRO =        -0.00000000
  eigenvalues    EBANDS =     -1278.28150111
  atomic energy  EATOM  =      8194.91340981
  ---------------------------------------------------
  free energy    TOTEN  =      -237.44028710 eV

  energy without entropy =     -237.44028710  energy(sigma->0) =     -237.44028710


--------------------------------------------------------------------------------------------------------




--------------------------------------- Iteration      1(  12)  ---------------------------------------


    POTLOK:  cpu time      0.0823: real time      0.0823
    SETDIJ:  cpu time      0.2568: real time      0.2568
    TRIAL :  cpu time      2.6649: real time      2.6661
    CORREC:  cpu time      2.0584: real time      2.0594
    CHARGE:  cpu time      0.7920: real time      0.7923
    --------------------------------------------
      LOOP:  cpu time      5.8690: real time      5.8882

 eigenvalue-minimisations  :     0
 total energy-change (2. order) :-0.1055166E-01  (-0.2999654E-02)
 number of electron     135.9999998 magnetization 
 augmentation part        0.6311677 magnetization 

 Free energy of the ion-electron system (eV)
  ---------------------------------------------------
  alpha Z        PSCENC =       164.42561539
  Ewald energy   TEWEN  =     -4769.51426773
  -Hartree energ DENC   =     -3168.76735724
  -exchange      EXHF   =         0.00000000
  -V(xc)+E(xc)   XCENC  =       660.88438670
  PAW double counting   =    106236.10292747  -106277.11425458
  entropy T*S    EENTRO =        -0.00000000
  eigenvalues    EBANDS =     -1278.38129858
  atomic energy  EATOM  =      8194.91340981
  ---------------------------------------------------
  free energy    TOTEN  =      -237.45083875 eV

  energy without entropy =     -237.45083875  energy(sigma->0) =     -237.45083875


--------------------------------------------------------------------------------------------------------




--------------------------------------- Iteration      1(  13)  ---------------------------------------


    POTLOK:  cpu time      0.0823: real time      0.0823
    SETDIJ:  cpu time      0.2571: real time      0.2571
    TRIAL :  cpu time      2.7353: real time      2.7366
    CORREC:  cpu time      1.9133: real time      1.9144
    CHARGE:  cpu time      0.7910: real time      0.7914
    --------------------------------------------
      LOOP:  cpu time      5.7942: real time      5.8106

 eigenvalue-minimisations  :     0
 total energy-change (2. order) :-0.2999287E-02  (-0.7846866E-03)
 number of electron     135.9999998 magnetization 
 augmentation part        0.6309430 magnetization 

 Free energy of the ion-electron system (eV)
  ---------------------------------------------------
  alpha Z        PSCENC =       164.42561539
  Ewald energy   TEWEN  =     -4769.51426773
  -Hartree energ DENC   =     -3167.97377838
  -exchange      EXHF   =         0.00000000
  -V(xc)+E(xc)   XCENC  =       660.83095375
  PAW double counting   =    106163.68356813  -106204.68021900
  entropy T*S    EENTRO =        -0.00000000
  eigenvalues    EBANDS =     -1279.13912001
  atomic energy  EATOM  =      8194.91340981
  ---------------------------------------------------
  free energy    TOTEN  =      -237.45383804 eV

  energy without entropy =     -237.45383804  energy(sigma->0) =     -237.45383804


--------------------------------------------------------------------------------------------------------




--------------------------------------- Iteration      1(  14)  ---------------------------------------


    POTLOK:  cpu time      0.0820: real time      0.0820
    SETDIJ:  cpu time      0.2574: real time      0.2574
    TRIAL :  cpu time      2.6742: real time      2.6755
    CORREC:  cpu time      1.8777: real time      1.8787
    CHARGE:  cpu time      0.8003: real time      0.8003
    --------------------------------------------
      LOOP:  cpu time      5.7026: real time      5.7236

 eigenvalue-minimisations  :     0
 total energy-change (2. order) :-0.7837305E-03  (-0.2229361E-03)
 number of electron     135.9999998 magnetization 
 augmentation part        0.6311757 magnetization 

 Free energy of the ion-electron system (eV)
  ---------------------------------------------------
  alpha Z        PSCENC =       164.42561539
  Ewald energy   TEWEN  =     -4769.51426773
  -Hartree energ DENC   =     -3167.80365584
  -exchange      EXHF   =         0.00000000
  -V(xc)+E(xc)   XCENC  =       660.82038622
  PAW double counting   =    105904.05335182  -105945.04897301
  entropy T*S    EENTRO =        -0.00000000
  eigenvalues    EBANDS =     -1279.30048844
  atomic energy  EATOM  =      8194.91340981
  ---------------------------------------------------
  free energy    TOTEN  =      -237.45462177 eV

  energy without entropy =     -237.45462177  energy(sigma->0) =     -237.45462177


--------------------------------------------------------------------------------------------------------




--------------------------------------- Iteration      1(  15)  ---------------------------------------


    POTLOK:  cpu time      0.0820: real time      0.0822
    SETDIJ:  cpu time      0.2569: real time      0.2569
    TRIAL :  cpu time      2.6611: real time      2.6620
    CORREC:  cpu time      1.9095: real time      1.9106
    CHARGE:  cpu time      0.7907: real time      0.7911
    --------------------------------------------
      LOOP:  cpu time      5.7303: real time      5.7331

 eigenvalue-minimisations  :     0
 total energy-change (2. order) :-0.2228386E-03  (-0.7143268E-04)
 number of electron     135.9999998 magnetization 
 augmentation part        0.6311764 magnetization 

 Free energy of the ion-electron system (eV)
  ---------------------------------------------------
  alpha Z        PSCENC =       164.42561539
  Ewald energy   TEWEN  =     -4769.51426773
  -Hartree energ DENC   =     -3167.83779337
  -exchange      EXHF   =         0.00000000
  -V(xc)+E(xc)   XCENC  =       660.82185354
  PAW double counting   =    105700.02979147  -105741.02831366
  entropy T*S    EENTRO =        -0.00000000
  eigenvalues    EBANDS =     -1279.26514006
  atomic energy  EATOM  =      8194.91340981
  ---------------------------------------------------
  free energy    TOTEN  =      -237.45484461 eV

  energy without entropy =     -237.45484461  energy(sigma->0) =     -237.45484461


--------------------------------------------------------------------------------------------------------




--------------------------------------- Iteration      1(  16)  ---------------------------------------


    POTLOK:  cpu time      0.0820: real time      0.0820
    SETDIJ:  cpu time      0.2570: real time      0.2573
    TRIAL :  cpu time      2.7694: real time      2.7703
    CORREC:  cpu time      1.8804: real time      1.8814
    CHARGE:  cpu time      0.7925: real time      0.7928
    --------------------------------------------
      LOOP:  cpu time      5.7986: real time      5.8140

 eigenvalue-minimisations  :     0
 total energy-change (2. order) :-0.7150737E-04  (-0.2799906E-04)
 number of electron     135.9999998 magnetization 
 augmentation part        0.6310389 magnetization 

 Free energy of the ion-electron system (eV)
  ---------------------------------------------------
  alpha Z        PSCENC =       164.42561539
  Ewald energy   TEWEN  =     -4769.51426773
  -Hartree energ DENC   =     -3167.83002617
  -exchange      EXHF   =         0.00000000
  -V(xc)+E(xc)   XCENC  =       660.82130761
  PAW double counting   =    105619.54178855  -105660.54091840
  entropy T*S    EENTRO =        -0.00000000
  eigenvalues    EBANDS =     -1279.27182518
  atomic energy  EATOM  =      8194.91340981
  ---------------------------------------------------
  free energy    TOTEN  =      -237.45491612 eV

  energy without entropy =     -237.45491612  energy(sigma->0) =     -237.45491612


--------------------------------------------------------------------------------------------------------




--------------------------------------- Iteration      1(  17)  ---------------------------------------


    POTLOK:  cpu time      0.0820: real time      0.0820
    SETDIJ:  cpu time      0.2573: real time      0.2573
    TRIAL :  cpu time      2.6618: real time      2.6631
    CORREC:  cpu time      1.8797: real time      1.8807
    CHARGE:  cpu time      0.7920: real time      0.7923
    --------------------------------------------
      LOOP:  cpu time      5.6847: real time      5.7045

 eigenvalue-minimisations  :     0
 total energy-change (2. order) :-0.2752039E-04  (-0.9646651E-05)
 number of electron     135.9999998 magnetization 
 augmentation part        0.6309378 magnetization 

 Free energy of the ion-electron system (eV)
  ---------------------------------------------------
  alpha Z        PSCENC =       164.42561539
  Ewald energy   TEWEN  =     -4769.51426773
  -Hartree energ DENC   =     -3167.85642525
  -exchange      EXHF   =         0.00000000
  -V(xc)+E(xc)   XCENC  =       660.82352275
  PAW double counting   =    105626.64074135  -105667.63916273
  entropy T*S    EENTRO =        -0.00000000
  eigenvalues    EBANDS =     -1279.24837723
  atomic energy  EATOM  =      8194.91340981
  ---------------------------------------------------
  free energy    TOTEN  =      -237.45494364 eV

  energy without entropy =     -237.45494364  energy(sigma->0) =     -237.45494364


--------------------------------------------------------------------------------------------------------




--------------------------------------- Iteration      1(  18)  ---------------------------------------


    POTLOK:  cpu time      0.0820: real time      0.0820
    SETDIJ:  cpu time      0.2568: real time      0.2568
    TRIAL :  cpu time      2.6667: real time      2.6686
    CORREC:  cpu time      1.9495: real time      1.9502
    CHARGE:  cpu time      0.8002: real time      0.8003
    --------------------------------------------
      LOOP:  cpu time      5.7834: real time      5.7863

 eigenvalue-minimisations  :     0
 total energy-change (2. order) :-0.9330615E-05  (-0.2377009E-05)
 number of electron     135.9999998 magnetization 
 augmentation part        0.6309452 magnetization 

 Free energy of the ion-electron system (eV)
  ---------------------------------------------------
  alpha Z        PSCENC =       164.42561539
  Ewald energy   TEWEN  =     -4769.51426773
  -Hartree energ DENC   =     -3167.87344794
  -exchange      EXHF   =         0.00000000
  -V(xc)+E(xc)   XCENC  =       660.82429444
  PAW double counting   =    105661.93948268  -105702.93705761
  entropy T*S    EENTRO =        -0.00000000
  eigenvalues    EBANDS =     -1279.23298201
  atomic energy  EATOM  =      8194.91340981
  ---------------------------------------------------
  free energy    TOTEN  =      -237.45495297 eV

  energy without entropy =     -237.45495297  energy(sigma->0) =     -237.45495297


--------------------------------------------------------------------------------------------------------




--------------------------------------- Iteration      1(  19)  ---------------------------------------


    POTLOK:  cpu time      0.0822: real time      0.0822
    SETDIJ:  cpu time      0.2572: real time      0.2572
    TRIAL :  cpu time      2.7715: real time      2.7727
    CORREC:  cpu time      1.8906: real time      1.8913
    CHARGE:  cpu time      0.7929: real time      0.7932
    --------------------------------------------
      LOOP:  cpu time      5.8170: real time      5.8257

 eigenvalue-minimisations  :     0
 total energy-change (2. order) :-0.2398796E-05  (-0.5456006E-06)
 number of electron     135.9999998 magnetization 
 augmentation part        0.6309471 magnetization 

 Free energy of the ion-electron system (eV)
  ---------------------------------------------------
  alpha Z        PSCENC =       164.42561539
  Ewald energy   TEWEN  =     -4769.51426773
  -Hartree energ DENC   =     -3167.88524397
  -exchange      EXHF   =         0.00000000
  -V(xc)+E(xc)   XCENC  =       660.82528864
  PAW double counting   =    105679.33688818  -105720.33462308
  entropy T*S    EENTRO =        -0.00000000
  eigenvalues    EBANDS =     -1279.22202261
  atomic energy  EATOM  =      8194.91340981
  ---------------------------------------------------
  free energy    TOTEN  =      -237.45495537 eV

  energy without entropy =     -237.45495537  energy(sigma->0) =     -237.45495537


--------------------------------------------------------------------------------------------------------




--------------------------------------- Iteration      1(  20)  ---------------------------------------


    POTLOK:  cpu time      0.0820: real time      0.0820
    SETDIJ:  cpu time      0.2566: real time      0.2569
    TRIAL :  cpu time      2.6722: real time      2.6730
    CORREC:  cpu time      1.8863: real time      1.8873
    CHARGE:  cpu time      0.7927: real time      0.7929
    --------------------------------------------
      LOOP:  cpu time      5.7040: real time      5.7192

 eigenvalue-minimisations  :     0
 total energy-change (2. order) :-0.5618786E-06  (-0.1987003E-06)
 number of electron     135.9999998 magnetization 
 augmentation part        0.6309496 magnetization 

 Free energy of the ion-electron system (eV)
  ---------------------------------------------------
  alpha Z        PSCENC =       164.42561539
  Ewald energy   TEWEN  =     -4769.51426773
  -Hartree energ DENC   =     -3167.88089978
  -exchange      EXHF   =         0.00000000
  -V(xc)+E(xc)   XCENC  =       660.82495258
  PAW double counting   =    105684.24543128  -105725.24319407
  entropy T*S    EENTRO =        -0.00000000
  eigenvalues    EBANDS =     -1279.22600341
  atomic energy  EATOM  =      8194.91340981
  ---------------------------------------------------
  free energy    TOTEN  =      -237.45495593 eV

  energy without entropy =     -237.45495593  energy(sigma->0) =     -237.45495593


--------------------------------------------------------------------------------------------------------




--------------------------------------- Iteration      1(  21)  ---------------------------------------


    POTLOK:  cpu time      0.0823: real time      0.0823
    SETDIJ:  cpu time      0.2829: real time      0.2830
    TRIAL :  cpu time      2.6624: real time      2.6636
    CORREC:  cpu time      1.9516: real time      1.9526
    CHARGE:  cpu time      0.7953: real time      0.7956
    --------------------------------------------
      LOOP:  cpu time      5.7878: real time      5.8059

 eigenvalue-minimisations  :     0
 total energy-change (2. order) :-0.1957524E-06  (-0.7302213E-07)
 number of electron     135.9999998 magnetization 
 augmentation part        0.6309445 magnetization 

 Free energy of the ion-electron system (eV)
  ---------------------------------------------------
  alpha Z        PSCENC =       164.42561539
  Ewald energy   TEWEN  =     -4769.51426773
  -Hartree energ DENC   =     -3167.88255041
  -exchange      EXHF   =         0.00000000
  -V(xc)+E(xc)   XCENC  =       660.82508222
  PAW double counting   =    105686.05641833  -105727.05423661
  entropy T*S    EENTRO =        -0.00000000
  eigenvalues    EBANDS =     -1279.22442713
  atomic energy  EATOM  =      8194.91340981
  ---------------------------------------------------
  free energy    TOTEN  =      -237.45495613 eV

  energy without entropy =     -237.45495613  energy(sigma->0) =     -237.45495613


--------------------------------------------------------------------------------------------------------




--------------------------------------- Iteration      1(  22)  ---------------------------------------


    POTLOK:  cpu time      0.0818: real time      0.0818
    SETDIJ:  cpu time      0.2577: real time      0.2577
    TRIAL :  cpu time      2.6851: real time      2.6864
    CORREC:  cpu time      1.9190: real time      1.9206
    EDDIAG:  cpu time      0.7353: real time      0.7363
    CHARGE:  cpu time      0.7908: real time      0.7909
    --------------------------------------------
      LOOP:  cpu time      6.4843: real time      6.5030

 eigenvalue-minimisations  :     0
 total energy-change (2. order) :-0.6624032E-07  (-0.2306813E-07)
 number of electron     135.9999998 magnetization 
 augmentation part        0.6309432 magnetization 

 Free energy of the ion-electron system (eV)
  ---------------------------------------------------
  alpha Z        PSCENC =       164.42561539
  Ewald energy   TEWEN  =     -4769.51426773
  -Hartree energ DENC   =     -3167.88070609
  -exchange      EXHF   =         0.00000000
  -V(xc)+E(xc)   XCENC  =       660.82495295
  PAW double counting   =    105686.99156713  -105727.98934544
  entropy T*S    EENTRO =        -0.00000000
  eigenvalues    EBANDS =     -1279.22618222
  atomic energy  EATOM  =      8194.91340981
  ---------------------------------------------------
  free energy    TOTEN  =      -237.45495619 eV

  energy without entropy =     -237.45495619  energy(sigma->0) =     -237.45495619


--------------------------------------------------------------------------------------------------------


  average scaling for gradient   0.7828


 average (electrostatic) potential at core
  the test charge radii are     0.5770  0.4325  0.5955
  (the norm of the test charge is              1.0000)
       1 -86.0493       2 -86.0493       3 -86.0493       4 -86.0493       5 -86.0493
       6 -86.0493       7 -86.0493       8 -86.0493       9 -43.9090      10 -43.9090
      11 -43.9090      12 -43.9090      13 -43.9090      14 -43.9090      15 -43.9090
      16 -43.9090      17-117.6712      18-118.7702      19-117.6712      20-118.7702
      21-117.6712      22-117.6712      23-117.6712      24-117.6712      25-117.6712
      26-117.6712      27-118.7702      28-118.7702      29-118.7702      30-118.7702
      31-118.7702      32-118.7702



 E-fermi :  -0.4530     XC(G=0):  -9.3757     alpha+bet : -7.5870

 Fermi energy:        -0.4529683471

 k-point     1 :       0.0000    0.0000    0.0000
  band No.  band energies     occupation 
      1     -23.9082      2.00000
      2     -23.7248      2.00000
      3     -23.5759      2.00000
      4     -23.5150      2.00000
      5     -23.0578      2.00000
      6     -23.0196      2.00000
      7     -22.9757      2.00000
      8     -22.9204      2.00000
      9     -21.4819      2.00000
     10     -21.4599      2.00000
     11     -21.1955      2.00000
     12     -21.1646      2.00000
     13     -21.0781      2.00000
     14     -21.0227      2.00000
     15     -20.7445      2.00000
     16     -20.7128      2.00000
     17     -12.8413      2.00000
     18     -12.5242      2.00000
     19     -12.4931      2.00000
     20     -12.2218      2.00000
     21     -10.4877      2.00000
     22     -10.4128      2.00000
     23      -9.8792      2.00000
     24      -9.8410      2.00000
     25      -7.7813      2.00000
     26      -7.7661      2.00000
     27      -7.7438      2.00000
     28      -7.4990      2.00000
     29      -7.4679      2.00000
     30      -7.3760      2.00000
     31      -7.3328      2.00000
     32      -7.2271      2.00000
     33      -7.1796      2.00000
     34      -6.9256      2.00000
     35      -6.1854      2.00000
     36      -6.0598      2.00000
     37      -6.0250      2.00000
     38      -6.0117      2.00000
     39      -5.9882      2.00000
     40      -5.7416      2.00000
     41      -5.0530      2.00000
     42      -5.0011      2.00000
     43      -4.9857      2.00000
     44      -4.8831      2.00000
     45      -4.6260      2.00000
     46      -4.4189      2.00000
     47      -4.3175      2.00000
     48      -4.0836      2.00000
     49      -3.7835      2.00000
     50      -3.7548      2.00000
     51      -3.6333      2.00000
     52      -3.3889      2.00000
     53      -2.6246      2.00000
     54      -2.5918      2.00000
     55      -2.5793      2.00000
     56      -2.5006      2.00000
     57      -2.3821      2.00000
     58      -2.3689      2.00000
     59      -2.3173      2.00000
     60      -2.1475      2.00000
     61      -2.1295      2.00000
     62      -2.1271      2.00000
     63      -2.0166      2.00000
     64      -2.0103      2.00000
     65      -0.9446      2.00000
     66      -0.9063      2.00000
     67      -0.7253      2.00000
     68      -0.6061      2.00000
     69       3.0184      0.00000
     70       3.2129      0.00000
     71       3.6893      0.00000
     72       3.8564      0.00000
     73       6.7321      0.00000
     74       6.7941      0.00000
     75       6.9868      0.00000
     76       7.4564      0.00000
     77       7.4794      0.00000
     78       8.3901      0.00000
     79       9.2208      0.00000
     80       9.4323      0.00000
     81       9.7826      0.00000
     82       9.7851      0.00000
     83       9.8590      0.00000
     84      10.4459      0.00000
     85      10.7945      0.00000
     86      10.8440      0.00000
     87      10.8830      0.00000
     88      11.1661      0.00000

 k-point     2 :       0.2500    0.0000    0.0000
  band No.  band energies     occupation 
      1     -23.8830      2.00000
      2     -23.7536      2.00000
      3     -23.5669      2.00000
      4     -23.5239      2.00000
      5     -23.0512      2.00000
      6     -23.0240      2.00000
      7     -22.9672      2.00000
      8     -22.9281      2.00000
      9     -21.4793      2.00000
     10     -21.4637      2.00000
     11     -21.1902      2.00000
     12     -21.1683      2.00000
     13     -21.0707      2.00000
     14     -21.0315      2.00000
     15     -20.7402      2.00000
     16     -20.7178      2.00000
     17     -12.7995      2.00000
     18     -12.5758      2.00000
     19     -12.4533      2.00000
     20     -12.2614      2.00000
     21     -10.4751      2.00000
     22     -10.4218      2.00000
     23      -9.8736      2.00000
     24      -9.8467      2.00000
     25      -7.7843      2.00000
     26      -7.7821      2.00000
     27      -7.7639      2.00000
[...]
      7     -22.9894      2.00000
      8     -22.9894      2.00000
      9     -21.3424      2.00000
     10     -21.3424      2.00000
     11     -21.3361      2.00000
     12     -21.3361      2.00000
     13     -20.8713      2.00000
     14     -20.8713      2.00000
     15     -20.8675      2.00000
     16     -20.8675      2.00000
     17     -12.5283      2.00000
     18     -12.5283      2.00000
     19     -12.5203      2.00000
     20     -12.5203      2.00000
     21     -10.1990      2.00000
     22     -10.1990      2.00000
     23     -10.1790      2.00000
     24     -10.1790      2.00000
     25      -7.7881      2.00000
     26      -7.7881      2.00000
     27      -7.7333      2.00000
     28      -7.7333      2.00000
     29      -7.1603      2.00000
     30      -7.1603      2.00000
     31      -7.0996      2.00000
     32      -7.0996      2.00000
     33      -6.7209      2.00000
     34      -6.7209      2.00000
     35      -6.6070      2.00000
     36      -6.6070      2.00000
     37      -6.0175      2.00000
     38      -6.0175      2.00000
     39      -5.9373      2.00000
     40      -5.9373      2.00000
     41      -4.9430      2.00000
     42      -4.9430      2.00000
     43      -4.8304      2.00000
     44      -4.8304      2.00000
     45      -4.6031      2.00000
     46      -4.6031      2.00000
     47      -4.4812      2.00000
     48      -4.4812      2.00000
     49      -3.6286      2.00000
     50      -3.6286      2.00000
     51      -3.5562      2.00000
     52      -3.5562      2.00000
     53      -2.5266      2.00000
     54      -2.5266      2.00000
     55      -2.4840      2.00000
     56      -2.4840      2.00000
     57      -2.3152      2.00000
     58      -2.3152      2.00000
     59      -2.2270      2.00000
     60      -2.2270      2.00000
     61      -2.1731      2.00000
     62      -2.1731      2.00000
     63      -2.1037      2.00000
     64      -2.1037      2.00000
     65      -0.8431      2.00000
     66      -0.8431      2.00000
     67      -0.8322      2.00000
     68      -0.8322      2.00000
     69       3.3767      0.00000
     70       3.3767      0.00000
     71       3.4412      0.00000
     72       3.4412      0.00000
     73       7.1586      0.00000
     74       7.1586      0.00000
     75       7.2074      0.00000
     76       7.2074      0.00000
     77       8.1152      0.00000
     78       8.1153      0.00000
     79       8.6701      0.00000
     80       8.6703      0.00000
     81       9.5072      0.00000
     82       9.5092      0.00000
     83       9.9866      0.00000
     84       9.9906      0.00000
     85      10.5956      0.00000
     86      10.6865      0.00000
     87      10.9017      0.00000
     88      11.1923      0.00000

 k-point    25 :       0.2500   -0.3333    0.5000
  band No.  band energies     occupation 
      1     -23.7034      2.00000
      2     -23.7034      2.00000
      3     -23.6730      2.00000
      4     -23.6730      2.00000
      5     -23.0018      2.00000
      6     -23.0018      2.00000
      7     -22.9894      2.00000
      8     -22.9894      2.00000
      9     -21.3424      2.00000
     10     -21.3424      2.00000
     11     -21.3361      2.00000
     12     -21.3361      2.00000
     13     -20.8713      2.00000
     14     -20.8713      2.00000
     15     -20.8675      2.00000
     16     -20.8675      2.00000
     17     -12.5283      2.00000
     18     -12.5283      2.00000
     19     -12.5203      2.00000
     20     -12.5203      2.00000
     21     -10.1990      2.00000
     22     -10.1990      2.00000
     23     -10.1790      2.00000
     24     -10.1790      2.00000
     25      -7.7881      2.00000
     26      -7.7881      2.00000
     27      -7.7333      2.00000
     28      -7.7333      2.00000
     29      -7.1603      2.00000
     30      -7.1603      2.00000
     31      -7.0996      2.00000
     32      -7.0996      2.00000
     33      -6.7209      2.00000
     34      -6.7209      2.00000
     35      -6.6070      2.00000
     36      -6.6070      2.00000
     37      -6.0175      2.00000
     38      -6.0175      2.00000
     39      -5.9373      2.00000
     40      -5.9373      2.00000
     41      -4.9430      2.00000
     42      -4.9430      2.00000
     43      -4.8304      2.00000
     44      -4.8304      2.00000
     45      -4.6031      2.00000
     46      -4.6031      2.00000
     47      -4.4812      2.00000
     48      -4.4812      2.00000
     49      -3.6286      2.00000
     50      -3.6286      2.00000
     51      -3.5562      2.00000
     52      -3.5562      2.00000
     53      -2.5266      2.00000
     54      -2.5266      2.00000
     55      -2.4840      2.00000
     56      -2.4840      2.00000
     57      -2.3152      2.00000
     58      -2.3152      2.00000
     59      -2.2270      2.00000
     60      -2.2270      2.00000
     61      -2.1731      2.00000
     62      -2.1731      2.00000
     63      -2.1037      2.00000
     64      -2.1037      2.00000
     65      -0.8431      2.00000
     66      -0.8431      2.00000
     67      -0.8322      2.00000
     68      -0.8322      2.00000
     69       3.3767      0.00000
     70       3.3767      0.00000
     71       3.4412      0.00000
     72       3.4412      0.00000
     73       7.1586      0.00000
     74       7.1586      0.00000
     75       7.2074      0.00000
     76       7.2074      0.00000
     77       8.1152      0.00000
     78       8.1153      0.00000
     79       8.6701      0.00000
     80       8.6702      0.00000
     81       9.5070      0.00000
     82       9.5086      0.00000
     83       9.9875      0.00000
     84       9.9909      0.00000
     85      10.6063      0.00000
     86      10.6392      0.00000
     87      10.9156      0.00000
     88      10.9577      0.00000

 k-point    26 :       0.5000    0.3333    0.5000
  band No.  band energies     occupation 
      1     -23.6869      2.00000
      2     -23.6869      2.00000
      3     -23.6869      2.00000
      4     -23.6869      2.00000
      5     -22.9970      2.00000
      6     -22.9970      2.00000
      7     -22.9970      2.00000
      8     -22.9970      2.00000
      9     -21.3399      2.00000
     10     -21.3399      2.00000
     11     -21.3399      2.00000
     12     -21.3399      2.00000
     13     -20.8691      2.00000
     14     -20.8691      2.00000
     15     -20.8691      2.00000
     16     -20.8691      2.00000
     17     -12.5208      2.00000
     18     -12.5208      2.00000
     19     -12.5208      2.00000
     20     -12.5208      2.00000
     21     -10.1911      2.00000
     22     -10.1911      2.00000
     23     -10.1911      2.00000
     24     -10.1911      2.00000
     25      -7.7542      2.00000
     26      -7.7542      2.00000
     27      -7.7542      2.00000
     28      -7.7542      2.00000
     29      -7.1894      2.00000
     30      -7.1894      2.00000
     31      -7.1894      2.00000
     32      -7.1894      2.00000
     33      -6.5830      2.00000
     34      -6.5830      2.00000
     35      -6.5830      2.00000
     36      -6.5830      2.00000
     37      -5.9965      2.00000
     38      -5.9965      2.00000
     39      -5.9965      2.00000
     40      -5.9965      2.00000
     41      -4.8694      2.00000
     42      -4.8694      2.00000
     43      -4.8694      2.00000
     44      -4.8694      2.00000
     45      -4.5461      2.00000
     46      -4.5461      2.00000
     47      -4.5461      2.00000
     48      -4.5461      2.00000
     49      -3.6089      2.00000
     50      -3.6089      2.00000
     51      -3.6089      2.00000
     52      -3.6089      2.00000
     53      -2.4904      2.00000
     54      -2.4904      2.00000
     55      -2.4904      2.00000
     56      -2.4904      2.00000
     57      -2.3158      2.00000
     58      -2.3158      2.00000
     59      -2.3158      2.00000
     60      -2.3158      2.00000
     61      -2.1428      2.00000
     62      -2.1428      2.00000
     63      -2.1428      2.00000
     64      -2.1428      2.00000
     65      -0.8311      2.00000
     66      -0.8310      2.00000
     67      -0.8310      2.00000
     68      -0.8310      2.00000
     69       3.4075      0.00000
     70       3.4075      0.00000
     71       3.4075      0.00000
     72       3.4075      0.00000
     73       7.2049      0.00000
     74       7.2049      0.00000
     75       7.2049      0.00000
     76       7.2049      0.00000
     77       8.6700      0.00000
     78       8.6700      0.00000
     79       8.6701      0.00000
     80       8.6705      0.00000
     81       9.3217      0.00000
     82       9.3218      0.00000
     83       9.3219      0.00000
     84       9.3229      0.00000
     85      10.7935      0.00000
     86      10.7985      0.00000
     87      10.8092      0.00000
     88      10.9419      0.00000


--------------------------------------------------------------------------------------------------------


 soft charge-density along one line, spin component           1
         0         1         2         3         4         5         6         7         8         9
 total charge-density along one line

 pseudopotential strength for first ion, spin component:           1
 12.558  21.129   0.013  -0.003   0.002   0.023  -0.004   0.004
 21.129  35.549   0.022  -0.004   0.004   0.039  -0.007   0.006
  0.013   0.022  -3.205  -0.001   0.000  -5.739  -0.001   0.001
 -0.003  -0.004  -0.001  -3.206   0.000  -0.001  -5.739   0.001
  0.002   0.004   0.000   0.000  -3.206   0.001   0.001  -5.739
  0.023   0.039  -5.739  -0.001   0.001 -10.252  -0.003   0.002
 -0.004  -0.007  -0.001  -5.739   0.001  -0.003 -10.253   0.002
  0.004   0.006   0.001   0.001  -5.739   0.002   0.002 -10.252
 total augmentation occupancy for first ion, spin component:           1
 10.938  -4.369   0.534  -1.701   1.199  -0.272   0.794  -0.561
 -4.369   1.840  -0.342   0.848  -0.601   0.150  -0.385   0.272
  0.534  -0.342   8.865   1.537  -1.096  -3.345  -0.723   0.514
 -1.701   0.848   1.537   7.594  -2.896  -0.722  -2.772   1.210
  1.199  -0.601  -1.096  -2.896   5.627   0.514   1.210  -1.952
 -0.272   0.150  -3.345  -0.722   0.514   1.291   0.329  -0.234
  0.794  -0.385  -0.723  -2.772   1.210   0.329   1.044  -0.511
 -0.561   0.272   0.514   1.210  -1.952  -0.234  -0.511   0.698


------------------------ aborting loop because EDIFF is reached ----------------------------------------


    FORLOC:  cpu time      0.0074: real time      0.0074
    FORNL :  cpu time      0.5380: real time      0.5386
    FORCOR:  cpu time      0.3379: real time      0.3383
    OFIELD:  cpu time      0.0003: real time      0.0003

 VOLUME and BASIS-vectors are now :
 -----------------------------------------------------------------------------
  energy-cutoff  :     1000.00
  volume of cell :      312.59
      direct lattice vectors                 reciprocal lattice vectors
     6.548000000  0.000000000  0.000000000     0.152718387  0.000000000  0.000000000
     0.000000000  7.844000000  0.000000000     0.000000000  0.127485977  0.000000000
     0.000000000  0.000000000  6.086000000     0.000000000  0.000000000  0.164311535

  length of vectors
     6.548000000  7.844000000  6.086000000     0.152718387  0.127485977  0.164311535


 FORCES acting on ions:
    Electron-Ion                     Ewald-Force                    Non-Local-Force
 -----------------------------------------------------------------------------------------------
   0.232E+02 0.101E+02 -.373E+02   -.239E+02 -.164E+02 0.380E+02   0.896E+00 0.653E+01 -.934E+00
   -.232E+02 -.101E+02 0.373E+02   0.239E+02 0.164E+02 -.380E+02   -.896E+00 -.653E+01 0.934E+00
   -.232E+02 0.101E+02 -.373E+02   0.239E+02 -.164E+02 0.380E+02   -.896E+00 0.653E+01 -.934E+00
   0.232E+02 -.101E+02 -.373E+02   -.239E+02 0.164E+02 0.380E+02   0.896E+00 -.653E+01 -.934E+00
   -.232E+02 -.101E+02 -.373E+02   0.239E+02 0.164E+02 0.380E+02   -.896E+00 -.653E+01 -.934E+00
   0.232E+02 -.101E+02 0.373E+02   -.239E+02 0.164E+02 -.380E+02   0.896E+00 -.653E+01 0.934E+00
   -.232E+02 0.101E+02 0.373E+02   0.239E+02 -.164E+02 -.380E+02   -.896E+00 0.653E+01 0.934E+00
   0.232E+02 0.101E+02 0.373E+02   -.239E+02 -.164E+02 -.380E+02   0.896E+00 0.653E+01 0.934E+00
   -.267E+02 -.369E+02 0.358E+02   0.296E+02 0.413E+02 -.403E+02   -.304E+01 -.467E+01 0.481E+01
   0.267E+02 0.369E+02 -.358E+02   -.296E+02 -.413E+02 0.403E+02   0.304E+01 0.467E+01 -.481E+01
   0.267E+02 -.369E+02 0.358E+02   -.296E+02 0.413E+02 -.403E+02   0.304E+01 -.467E+01 0.481E+01
   -.267E+02 0.369E+02 0.358E+02   0.296E+02 -.413E+02 -.403E+02   -.304E+01 0.467E+01 0.481E+01
   0.267E+02 0.369E+02 0.358E+02   -.296E+02 -.413E+02 -.403E+02   0.304E+01 0.467E+01 0.481E+01
   -.267E+02 0.369E+02 -.358E+02   0.296E+02 -.413E+02 0.403E+02   -.304E+01 0.467E+01 -.481E+01
   0.267E+02 -.369E+02 -.358E+02   -.296E+02 0.413E+02 0.403E+02   0.304E+01 -.467E+01 -.481E+01
   -.267E+02 -.369E+02 -.358E+02   0.296E+02 0.413E+02 0.403E+02   -.304E+01 -.467E+01 -.481E+01
   -.108E+03 0.569E+02 0.145E+03   0.136E+03 -.737E+02 -.183E+03   -.283E+02 0.171E+02 0.379E+02
   0.300E+02 -.157E+03 -.512E+02   -.526E+02 0.182E+03 0.848E+02   0.228E+02 -.244E+02 -.339E+02
   0.108E+03 -.569E+02 -.145E+03   -.136E+03 0.737E+02 0.183E+03   0.283E+02 -.171E+02 -.379E+02
   -.300E+02 0.157E+03 0.512E+02   0.526E+02 -.182E+03 -.848E+02   -.228E+02 0.244E+02 0.339E+02
   0.108E+03 0.569E+02 0.145E+03   -.136E+03 -.737E+02 -.183E+03   0.283E+02 0.171E+02 0.379E+02
   -.108E+03 -.569E+02 0.145E+03   0.136E+03 0.737E+02 -.183E+03   -.283E+02 -.171E+02 0.379E+02
   0.108E+03 -.569E+02 0.145E+03   -.136E+03 0.737E+02 -.183E+03   0.283E+02 -.171E+02 0.379E+02
   -.108E+03 -.569E+02 -.145E+03   0.136E+03 0.737E+02 0.183E+03   -.283E+02 -.171E+02 -.379E+02
   0.108E+03 0.569E+02 -.145E+03   -.136E+03 -.737E+02 0.183E+03   0.283E+02 0.171E+02 -.379E+02
   -.108E+03 0.569E+02 -.145E+03   0.136E+03 -.737E+02 0.183E+03   -.283E+02 0.171E+02 -.379E+02
   -.300E+02 -.157E+03 -.512E+02   0.526E+02 0.182E+03 0.848E+02   -.228E+02 -.244E+02 -.339E+02
   0.300E+02 0.157E+03 -.512E+02   -.526E+02 -.182E+03 0.848E+02   0.228E+02 0.244E+02 -.339E+02
   -.300E+02 0.157E+03 -.512E+02   0.526E+02 -.182E+03 0.848E+02   -.228E+02 0.244E+02 -.339E+02
   0.300E+02 0.157E+03 0.512E+02   -.526E+02 -.182E+03 -.848E+02   0.228E+02 0.244E+02 0.339E+02
   -.300E+02 -.157E+03 0.512E+02   0.526E+02 0.182E+03 -.848E+02   -.228E+02 -.244E+02 0.339E+02
   0.300E+02 -.157E+03 0.512E+02   -.526E+02 0.182E+03 -.848E+02   0.228E+02 -.244E+02 0.339E+02
 -----------------------------------------------------------------------------------------------
   -.906E-05 0.262E-05 0.452E-05   0.107E-12 0.256E-12 -.284E-13   0.000E+00 -.355E-14 -.711E-14


 POSITION                                       TOTAL-FORCE (eV/Angst)
 -----------------------------------------------------------------------------------
      0.37583      0.43233      5.56714         0.222684      0.139048     -0.338617
      6.17217      7.41167      0.51886        -0.222684     -0.139048      0.338617
      2.89817      0.43233      2.52414        -0.222609      0.139152     -0.338499
      3.64983      3.48967      5.56714         0.222662     -0.139071     -0.338591
      6.17217      3.48967      2.52414        -0.222633     -0.139121     -0.338532
      3.64983      7.41167      3.56186         0.222609     -0.139152      0.338499
      2.89817      4.35433      0.51886        -0.222662      0.139071      0.338591
      0.37583      4.35433      3.56186         0.222633      0.139121      0.338532
      0.63015      2.31843      5.13527        -0.161974     -0.255646      0.242903
      5.91785      5.52557      0.95073         0.161974      0.255646     -0.242903
      2.64385      2.31843      2.09227         0.161990     -0.255659      0.242931
      3.90415      1.60357      5.13527        -0.161984      0.255654      0.242915
      5.91785      1.60357      2.09227         0.161987      0.255655      0.242927
      3.90415      5.52557      3.99373        -0.161990      0.255659     -0.242931
      2.64385      6.24043      0.95073         0.161984     -0.255654     -0.242915
      0.63015      6.24043      3.99373        -0.161987     -0.255655     -0.242927
      1.02885      7.78797      4.65332        -0.427113      0.263821      0.578814
      0.20001      1.71027      5.81226         0.220856     -0.339270     -0.333082
      5.51915      0.05603      1.43268         0.427113     -0.263821     -0.578814
      6.34799      6.13373      0.27374        -0.220856      0.339270      0.333082
      2.24515      7.78798      1.61032         0.427083      0.263817      0.578823
      4.30285      3.97802      4.65332        -0.427112     -0.263820      0.578810
      5.51915      3.97803      1.61032         0.427083     -0.263825      0.578829
      4.30285      0.05602      4.47568        -0.427083     -0.263817     -0.578823
      2.24515      3.86598      1.43268         0.427112      0.263820     -0.578810
      1.02885      3.86597      4.47568        -0.427083      0.263825     -0.578829
      3.07399      1.71027      2.76927        -0.220861     -0.339268     -0.333097
      3.47401      2.21173      5.81226         0.220857      0.339276     -0.333093
      6.34799      2.21173      2.76927        -0.220865      0.339258     -0.333102
      3.47401      6.13373      3.31673         0.220861      0.339268      0.333097
      3.07399      5.63227      0.27374        -0.220857     -0.339276      0.333093
      0.20001      5.63227      3.31673         0.220865     -0.339258      0.333102
 -----------------------------------------------------------------------------------
    total drift:                               -0.000009      0.000003      0.000005


--------------------------------------------------------------------------------------------------------



  FREE ENERGIE OF THE ION-ELECTRON SYSTEM (eV)
  ---------------------------------------------------
  free  energy   TOTEN  =      -237.45495619 eV

  energy  without entropy=     -237.45495619  energy(sigma->0) =     -237.45495619



--------------------------------------------------------------------------------------------------------


    POTLOK:  cpu time      0.3430: real time      0.3435


--------------------------------------------------------------------------------------------------------


 stress matrix after NEB project (eV)
      0.00000      0.00000      0.00000
      0.00000      0.00000      0.00000
      0.00000      0.00000      0.00000
  FORCES: max atom, RMS     0.766194    0.546815
  FORCE total and by dimension    3.093254    0.578829
  Stress total and by dimension    0.000000    0.000000
     LOOP+:  cpu time    120.4199: real time    120.7846
    4ORBIT:  cpu time      0.0000: real time      0.0000

 total amount of memory used by VASP MPI-rank0    60050. kBytes
=======================================================================

   base      :      30000. kBytes
   nonl-proj :       3962. kBytes
   fftplans  :       1801. kBytes
   grid      :       4298. kBytes
   one-center:          3. kBytes
   wavefun   :      19986. kBytes

  
  
 General timing and accounting informations for this job:
 ========================================================
  
                  Total CPU time used (sec):      127.731
                            User time (sec):      119.712
                          System time (sec):        8.019
                         Elapsed time (sec):      132.028
  
                   Maximum memory used (kb):      307644.
                   Average memory used (kb):          N/A
  
                          Minor page faults:       592364
                          Major page faults:          812
                 Voluntary context switches:         3799
