 vasp.6.4.1 05Apr23 (build Jun  6 2023 14:36:51) complex                         
 executed on        HPECrayEX_GCC date 2024.08.20  14:34:31
 running  256 mpi-ranks, with    1 threads/rank, on    2 nodes
 distrk:  each k-point on  128 cores,    2 groups
 distr:  one band on NCORE=  32 cores,    4 groups


--------------------------------------------------------------------------------------------------------


 INCAR:
   ALGO = Conjugate
   KPAR = 2
   NCORE = 32
   ISMEAR = 0
   SIGMA = 0.01
   PREC = Accurate
   EDIFF = 1E-7
   ENCUT = 1000
   ISIF = 0
   METAGGA = RSCAN
   LASPH = .TRUE.
   SYMPREC = 1E-7
   LWAVE = .FALSE.
   LCHARG = .FALSE.
   LWAVE = .FALSE.
   LCHARGE = .FALSE.

 POTCAR:    PAW_PBE N_h 06Feb2004                 
 POTCAR:    PAW_PBE H_h 06Feb2004                 
 POTCAR:    PAW_PBE N_h 06Feb2004                 
   VRHFIN =N: s2p3                                                                                  
   LEXCH  = PE                                                                                      
   EATOM  =   264.5486 eV,   19.4438 Ry                                                             
                                                                                                    
   TITEL  = PAW_PBE N_h 06Feb2004                                                                   
   LULTRA =        F    use ultrasoft PP ?                                                          
   IUNSCR =        1    unscreen: 0-lin 1-nonlin 2-no                                               
   RPACOR =    0.800    partial core radius                                                         
   POMASS =   14.001; ZVAL   =    5.000    mass and valenz                                          
   RCORE  =    1.100    outmost cutoff radius                                                       
   RWIGS  =    1.480; RWIGS  =    0.783    wigner-seitz radius (au A)                               
   ENMAX  =  700.000; ENMIN  =  500.000 eV                                                          
   ICORE  =        2    local potential                                                             
   LCOR   =        T    correct aug charges                                                         
   LPAW   =        T    paw PP                                                                      
   EAUG   =  904.640                                                                                
   DEXC   =    0.000                                                                                
   RMAX   =    1.127    core radius for proj-oper                                                   
   RAUG   =    1.300    factor for augmentation sphere                                              
   RDEP   =    1.115    radius for radial grids                                                     
   RDEPT  =    1.106    core radius for aug-charge                                                  
                                                                                                    
   Atomic configuration                                                                             
    4 entries                                                                                       
     n  l   j            E        occ.                                                              
     1  0  0.50      -384.7179   2.0000                                                             
     2  0  0.50       -18.5828   2.0000                                                             
     2  1  0.50        -7.0898   3.0000                                                             
     3  2  1.50        -6.8029   0.0000                                                             
   Description                                                                                      
     l       E           TYP  RCUT    TYP  RCUT                                                     
     0    -18.5828117     23  1.100                                                                 
     0    -15.0750597     23  1.100                                                                 
     1     -7.0897851     23  1.100                                                                 
     1     -1.9663412     23  1.100                                                                 
     2     -6.8029130      7  1.100                                                                 
  local pseudopotential read in
  partial core-charges read in
  partial kinetic energy density read in
  kinetic energy density of atom read in
  atomic valenz-charges read in
  non local Contribution for L=           0  read in
    real space projection operators read in
  non local Contribution for L=           0  read in
    real space projection operators read in
  non local Contribution for L=           1  read in
    real space projection operators read in
  non local Contribution for L=           1  read in
    real space projection operators read in
    PAW grid and wavefunctions read in

   number of l-projection  operators is LMAX  =           4
   number of lm-projection operators is LMMAX =           8

 POTCAR:    PAW_PBE H_h 06Feb2004                 
   VRHFIN =H: ultrasoft test                                                                        
   LEXCH  = PE                                                                                      
   EATOM  =    12.4884 eV,    0.9179 Ry                                                             
                                                                                                    
   TITEL  = PAW_PBE H_h 06Feb2004                                                                   
   LULTRA =        F    use ultrasoft PP ?                                                          
   IUNSCR =        0    unscreen: 0-lin 1-nonlin 2-no                                               
   RPACOR =    0.000    partial core radius                                                         
   POMASS =    1.000; ZVAL   =    1.000    mass and valenz                                          
   RCORE  =    0.800    outmost cutoff radius                                                       
   RWIGS  =    0.700; RWIGS  =    0.370    wigner-seitz radius (au A)                               
   ENMAX  =  700.000; ENMIN  =  350.000 eV                                                          
   RCLOC  =    0.701    cutoff for local pot                                                        
   LCOR   =        T    correct aug charges                                                         
   LPAW   =        T    paw PP                                                                      
   EAUG   = 1000.000                                                                                
   RMAX   =    0.819    core radius for proj-oper                                                   
   RAUG   =    1.000    factor for augmentation sphere                                              
   RDEP   =    0.817    radius for radial grids                                                     
   RDEPT  =    0.817    core radius for aug-charge                                                  
                                                                                                    
   Atomic configuration                                                                             
    2 entries                                                                                       
     n  l   j            E        occ.                                                              
     1  0  0.50        -6.4927   1.0000                                                             
     2  1  0.50        -3.4015   0.0000                                                             
   Description                                                                                      
     l       E           TYP  RCUT    TYP  RCUT                                                     
     0     -6.4927493     23  0.800                                                                 
     0      6.8029130     23  0.800                                                                 
     1     -6.8029130     23  0.800                                                                 
  local pseudopotential read in
  atomic valenz-charges read in
  non local Contribution for L=           0  read in
    real space projection operators read in
  non local Contribution for L=           0  read in
    real space projection operators read in
  non local Contribution for L=           1  read in
    real space projection operators read in
    PAW grid and wavefunctions read in

   number of l-projection  operators is LMAX  =           3
   number of lm-projection operators is LMMAX =           5

  PAW_PBE N_h 06Feb2004                 :
 energy of atom  1       EATOM= -264.5486
 kinetic energy error for atom=    0.0081 (will be added to EATOM!!)
  PAW_PBE H_h 06Feb2004                 :
 energy of atom  2       EATOM=  -12.4884
 kinetic energy error for atom=    0.0006 (will be added to EATOM!!)


 POSCAR:  N  H
  positions in cartesian coordinates
  No initial velocities read in

 METAGGA = RSCAN                                       LMAXTAU =  6    LMIXTAU =  F

 exchange correlation table for  LEXCH =        8
   RHO(1)=    0.500       N(1)  =     2000
   RHO(2)=  100.500       N(2)  =     4000

 VTST: version 4.1, (05/19/21)

 CHAIN: initializing optimizer
 
 OPT: Using VASP Dynamics algorithm
 CHAIN: Read ICHAIN            0

 POSCAR:  N  H
  positions in cartesian coordinates
  No initial velocities read in



--------------------------------------------------------------------------------------------------------


 ion  position               nearest neighbor table
   1  0.204  0.204  0.204-   7 1.03   5 1.03   6 1.03
   2  0.704  0.296  0.796-  10 1.03   8 1.03   9 1.03
   3  0.796  0.704  0.296-  12 1.03  16 1.03  11 1.03
   4  0.296  0.796  0.704-  13 1.03  14 1.03  15 1.03
   5  0.363  0.272  0.104-   1 1.03
   6  0.272  0.104  0.363-   1 1.03
   7  0.104  0.363  0.272-   1 1.03
   8  0.863  0.228  0.896-   2 1.03
   9  0.772  0.396  0.637-   2 1.03
  10  0.604  0.137  0.728-   2 1.03
  11  0.728  0.604  0.137-   3 1.03
  12  0.896  0.863  0.228-   3 1.03
  13  0.396  0.637  0.772-   4 1.03
  14  0.137  0.728  0.604-   4 1.03
  15  0.228  0.896  0.863-   4 1.03
  16  0.637  0.772  0.396-   3 1.03

  LATTYP: Found a simple cubic cell.
 ALAT       =     5.1305000000
  
  Lattice vectors:
  
 A1 = (   5.1305000000,   0.0000000000,   0.0000000000)
 A2 = (   0.0000000000,   5.1305000000,   0.0000000000)
 A3 = (   0.0000000000,   0.0000000000,   5.1305000000)


Analysis of symmetry for initial positions (statically):
=====================================================================
 Subroutine PRICEL returns:
 Original cell was already a primitive cell.
 

 Routine SETGRP: Setting up the symmetry group for a 
 simple cubic supercell.


 Subroutine GETGRP returns: Found  1 space group operations
 (whereof  1 operations were pure point group operations)
 out of a pool of 48 trial point group operations.


The static configuration has the point symmetry C_1 .


Analysis of symmetry for dynamics (positions and initial velocities):
=====================================================================
 Subroutine PRICEL returns:
 Original cell was already a primitive cell.
 

 Routine SETGRP: Setting up the symmetry group for a 
 simple cubic supercell.


 Subroutine GETGRP returns: Found  1 space group operations
 (whereof  1 operations were pure point group operations)
 out of a pool of 48 trial point group operations.


The dynamic configuration has the point symmetry C_1 .


 Subroutine INISYM returns: Found  1 space group operations
 (whereof  1 operations are pure point group operations),
 and found     1 'primitive' translations


----------------------------------------------------------------------------------------

                                     Primitive cell                                     

  volume of cell :     135.0452

  direct lattice vectors                    reciprocal lattice vectors
     5.130500000  0.000000000  0.000000000     0.194912777  0.000000000  0.000000000
     0.000000000  5.130500000  0.000000000     0.000000000  0.194912777  0.000000000
     0.000000000  0.000000000  5.130500000     0.000000000  0.000000000  0.194912777

  length of vectors
     5.130500000  5.130500000  5.130500000     0.194912777  0.194912777  0.194912777

  position of ions in fractional coordinates (direct lattice)
     0.203627113  0.203621431  0.203630403
     0.703627029  0.296379224  0.796369782
     0.796376204  0.703621086  0.296368680
     0.296376360  0.796379870  0.703631030
     0.362924549  0.272160065  0.103816846
     0.272173110  0.103811414  0.362943826
     0.103803989  0.362910930  0.272163643
     0.862924359  0.227840758  0.896183154
     0.772173318  0.396189393  0.637055963
     0.603804049  0.137089872  0.727836227
     0.727828470  0.603811815  0.137056818
     0.896196011  0.862910103  0.227837673
     0.396196503  0.637090091  0.772162233
     0.137076124  0.727840763  0.603815983
     0.227828970  0.896188586  0.862942724
     0.637075505  0.772159890  0.396183698

  ion indices of the primitive-cell ions
   primitive index   ion index
                 1           1
                 2           2
                 3           3
                 4           4
                 5           5
                 6           6
                 7           7
                 8           8
                 9           9
                10          10
                11          11
                12          12
                13          13
                14          14
                15          15
                16          16

----------------------------------------------------------------------------------------



 KPOINTS: auto                                    

Automatic generation of k-mesh.
 Grid dimensions read from file:
 generate k-points for:    5    5    5

 Generating k-lattice:

  Cartesian coordinates                     Fractional coordinates (reciprocal lattice)
     0.038982555  0.000000000  0.000000000     0.200000000  0.000000000  0.000000000
     0.000000000  0.038982555  0.000000000     0.000000000  0.200000000  0.000000000
     0.000000000  0.000000000  0.038982555     0.000000000  0.000000000  0.200000000

  Length of vectors
     0.038982555  0.038982555  0.038982555

  Shift w.r.t. Gamma in fractional coordinates (k-lattice)
     0.000000000  0.000000000  0.000000000

 
 Subroutine IBZKPT returns following result:
 ===========================================
 
 Found     63 irreducible k-points:
 
 Following reciprocal coordinates:
            Coordinates               Weight
  0.000000  0.000000  0.000000      1.000000
  0.200000  0.000000  0.000000      2.000000
  0.000000  0.200000  0.000000      2.000000
  0.000000  0.000000  0.200000      2.000000
  0.400000  0.000000  0.000000      2.000000
  0.000000  0.400000  0.000000      2.000000
  0.000000  0.000000  0.400000      2.000000
  0.200000  0.200000  0.000000      2.000000
  0.000000  0.200000  0.200000      2.000000
  0.200000  0.000000  0.200000      2.000000
 -0.200000  0.200000  0.000000      2.000000
 -0.200000  0.000000  0.200000      2.000000
  0.000000 -0.200000  0.200000      2.000000
  0.400000  0.200000  0.000000      2.000000
  0.000000  0.400000  0.200000      2.000000
  0.200000  0.000000  0.400000      2.000000
 -0.200000  0.400000  0.000000      2.000000
 -0.400000  0.000000  0.200000      2.000000
  0.000000  0.200000  0.400000      2.000000
  0.000000 -0.400000  0.200000      2.000000
 -0.200000  0.000000  0.400000      2.000000
  0.400000  0.000000  0.200000      2.000000
  0.000000 -0.200000  0.400000      2.000000
  0.400000 -0.200000  0.000000      2.000000
  0.200000  0.400000  0.000000      2.000000
  0.400000  0.400000  0.000000      2.000000
  0.000000  0.400000  0.400000      2.000000
  0.400000  0.000000  0.400000      2.000000
 -0.400000  0.400000  0.000000      2.000000
 -0.400000  0.000000  0.400000      2.000000
  0.000000 -0.400000  0.400000      2.000000
  0.200000  0.200000  0.200000      2.000000
 -0.200000  0.200000  0.200000      2.000000
 -0.200000 -0.200000  0.200000      2.000000
  0.200000 -0.200000  0.200000      2.000000
  0.400000  0.200000  0.200000      2.000000
  0.200000  0.400000  0.200000      2.000000
  0.200000  0.200000  0.400000      2.000000
 -0.200000  0.400000  0.200000      2.000000
 -0.400000  0.200000  0.200000      2.000000
 -0.200000  0.200000  0.400000      2.000000
 -0.400000 -0.200000  0.200000      2.000000
 -0.200000 -0.400000  0.200000      2.000000
 -0.200000 -0.200000  0.400000      2.000000
  0.200000 -0.400000  0.200000      2.000000
  0.400000 -0.200000  0.200000      2.000000
  0.200000 -0.200000  0.400000      2.000000
  0.400000  0.400000  0.200000      2.000000
  0.200000  0.400000  0.400000      2.000000
  0.400000  0.200000  0.400000      2.000000
 -0.400000  0.400000  0.200000      2.000000
 -0.400000  0.200000  0.400000      2.000000
 -0.200000  0.400000  0.400000      2.000000
 -0.400000 -0.400000  0.200000      2.000000
 -0.200000 -0.400000  0.400000      2.000000
 -0.400000 -0.200000  0.400000      2.000000
  0.400000 -0.400000  0.200000      2.000000
  0.400000 -0.200000  0.400000      2.000000
  0.200000 -0.400000  0.400000      2.000000
  0.400000  0.400000  0.400000      2.000000
 -0.400000  0.400000  0.400000      2.000000
 -0.400000 -0.400000  0.400000      2.000000
  0.400000 -0.400000  0.400000      2.000000
 
 Following cartesian coordinates:
            Coordinates               Weight
  0.000000  0.000000  0.000000      1.000000
  0.038983  0.000000  0.000000      2.000000
  0.000000  0.038983  0.000000      2.000000
  0.000000  0.000000  0.038983      2.000000
  0.077965  0.000000  0.000000      2.000000
  0.000000  0.077965  0.000000      2.000000
  0.000000  0.000000  0.077965      2.000000
  0.038983  0.038983  0.000000      2.000000
  0.000000  0.038983  0.038983      2.000000
  0.038983  0.000000  0.038983      2.000000
 -0.038983  0.038983  0.000000      2.000000
 -0.038983  0.000000  0.038983      2.000000
  0.000000 -0.038983  0.038983      2.000000
  0.077965  0.038983  0.000000      2.000000
  0.000000  0.077965  0.038983      2.000000
  0.038983  0.000000  0.077965      2.000000
 -0.038983  0.077965  0.000000      2.000000
 -0.077965  0.000000  0.038983      2.000000
  0.000000  0.038983  0.077965      2.000000
  0.000000 -0.077965  0.038983      2.000000
 -0.038983  0.000000  0.077965      2.000000
  0.077965  0.000000  0.038983      2.000000
  0.000000 -0.038983  0.077965      2.000000
  0.077965 -0.038983  0.000000      2.000000
  0.038983  0.077965  0.000000      2.000000
  0.077965  0.077965  0.000000      2.000000
  0.000000  0.077965  0.077965      2.000000
  0.077965  0.000000  0.077965      2.000000
 -0.077965  0.077965  0.000000      2.000000
 -0.077965  0.000000  0.077965      2.000000
  0.000000 -0.077965  0.077965      2.000000
  0.038983  0.038983  0.038983      2.000000
 -0.038983  0.038983  0.038983      2.000000
 -0.038983 -0.038983  0.038983      2.000000
  0.038983 -0.038983  0.038983      2.000000
  0.077965  0.038983  0.038983      2.000000
  0.038983  0.077965  0.038983      2.000000
  0.038983  0.038983  0.077965      2.000000
 -0.038983  0.077965  0.038983      2.000000
 -0.077965  0.038983  0.038983      2.000000
 -0.038983  0.038983  0.077965      2.000000
 -0.077965 -0.038983  0.038983      2.000000
 -0.038983 -0.077965  0.038983      2.000000
 -0.038983 -0.038983  0.077965      2.000000
  0.038983 -0.077965  0.038983      2.000000
  0.077965 -0.038983  0.038983      2.000000
  0.038983 -0.038983  0.077965      2.000000
  0.077965  0.077965  0.038983      2.000000
  0.038983  0.077965  0.077965      2.000000
  0.077965  0.038983  0.077965      2.000000
 -0.077965  0.077965  0.038983      2.000000
 -0.077965  0.038983  0.077965      2.000000
 -0.038983  0.077965  0.077965      2.000000
 -0.077965 -0.077965  0.038983      2.000000
 -0.038983 -0.077965  0.077965      2.000000
 -0.077965 -0.038983  0.077965      2.000000
  0.077965 -0.077965  0.038983      2.000000
  0.077965 -0.038983  0.077965      2.000000
  0.038983 -0.077965  0.077965      2.000000
  0.077965  0.077965  0.077965      2.000000
 -0.077965  0.077965  0.077965      2.000000
 -0.077965 -0.077965  0.077965      2.000000
  0.077965 -0.077965  0.077965      2.000000
 


--------------------------------------------------------------------------------------------------------




 Dimension of arrays:
   k-points           NKPTS =     63   k-points in BZ     NKDIM =     63   number of bands    NBANDS=     28
   number of dos      NEDOS =    301   number of ions     NIONS =     16
   non local maximal  LDIM  =      4   non local SUM 2l+1 LMDIM =      8
   total plane-waves  NPLWV = 157464
   max r-space proj   IRMAX =      1   max aug-charges    IRDMAX=   8480
   dimension x,y,z NGX =    54 NGY =   54 NGZ =   54
   dimension x,y,z NGXF=   108 NGYF=  108 NGZF=  108
   support grid    NGXF=   108 NGYF=  108 NGZF=  108
   ions per type =               4  12
   NGX,Y,Z   is equivalent  to a cutoff of  17.50, 17.50, 17.50 a.u.
   NGXF,Y,Z  is equivalent  to a cutoff of  35.00, 35.00, 35.00 a.u.

 SYSTEM =  unknown system                          
 POSCAR =   N  H                                   

 Startparameter for this run:
   NWRITE =      2    write-flag & timer
   PREC   = accura    normal or accurate (medium, high low for compatibility)
   ISTART =      0    job   : 0-new  1-cont  2-samecut
   ICHARG =      2    charge: 1-file 2-atom 10-const
   ISPIN  =      1    spin polarized calculation?
   LNONCOLLINEAR =      F non collinear calculations
   LSORBIT =      F    spin-orbit coupling
   INIWAV =      1    electr: 0-lowe 1-rand  2-diag
   LASPH  =      T    aspherical Exc in radial PAW
 Electronic Relaxation 1
   ENCUT  = 1000.0 eV  73.50 Ry    8.57 a.u.  13.23 13.23 13.23*2*pi/ulx,y,z
   ENINI  = 1000.0     initial cutoff
   ENAUG  = 1000.0 eV  augmentation charge cutoff
   NELM   =     60;   NELMIN=  2; NELMDL= -5     # of ELM steps 
   EDIFF  = 0.1E-06   stopping-criterion for ELM
   LREAL  =      F    real-space projection
   NLSPLINE    = F    spline interpolate recip. space projectors
   LCOMPAT=      F    compatible to vasp.4.4
   GGA_COMPAT  = T    GGA compatible to vasp.4.4-vasp.4.6
   LMAXPAW     = -100 max onsite density
   LMAXMIX     =    2 max onsite mixed and CHGCAR
   VOSKOWN=      0    Vosko Wilk Nusair interpolation
   ROPT   =    0.00000   0.00000
 Ionic relaxation
   EDIFFG = 0.1E-05   stopping-criterion for IOM
   NSW    =      0    number of steps for IOM
   NBLOCK =      1;   KBLOCK =      1    inner block; outer block 
   IBRION =     -1    ionic relax: 0-MD 1-quasi-New 2-CG
   NFREE  =      0    steps in history (QN), initial steepest desc. (CG)
   ISIF   =      0    stress and relaxation
   IWAVPR =     10    prediction:  0-non 1-charg 2-wave 3-comb
   ISYM   =      2    0-nonsym 1-usesym 2-fastsym
   LCORR  =      T    Harris-Foulkes like correction to forces

   POTIM  = 0.5000    time-step for ionic-motion
   TEIN   =    0.0    initial temperature
   TEBEG  =    0.0;   TEEND  =   0.0 temperature during run
   SMASS  =  -3.00    Nose mass-parameter (am)
   estimated Nose-frequenzy (Omega)   =  0.10E-29 period in steps = 0.13E+47 mass=  -0.602E-27a.u.
   SCALEE = 1.0000    scale energy and forces
   NPACO  =    256;   APACO  = 10.0  distance and # of slots for P.C.
   PSTRESS=    0.0 pullay stress

  Mass of Ions in am
   POMASS =  14.00  1.00
  Ionic Valenz
   ZVAL   =   5.00  1.00
  Atomic Wigner-Seitz radii
   RWIGS  =  -1.00 -1.00
  virtual crystal weights 
   VCA    =   1.00  1.00
   NELECT =      32.0000    total number of electrons
   NUPDOWN=      -1.0000    fix difference up-down

 DOS related values:
   EMIN   =  10.00;   EMAX   =-10.00  energy-range for DOS
   EFERMI =   0.00;   METHOD = LEGACY      
   ISMEAR =     0;   SIGMA  =   0.01  broadening in eV -4-tet -1-fermi 0-gaus

 Electronic relaxation 2 (details)
   IALGO  =     58    algorithm
   LDIAG  =      T    sub-space diagonalisation (order eigenvalues)
   LSUBROT=      F    optimize rotation matrix (better conditioning)
   TURBO    =      0    0=normal 1=particle mesh
   IRESTART =      0    0=no restart 2=restart with 2 vectors
   NREBOOT  =      0    no. of reboots
   NMIN     =      0    reboot dimension
   EREF     =   0.00    reference energy to select bands
   IMIX   =      4    mixing-type and parameters
     AMIX     =   0.40;   BMIX     =  1.00
     AMIX_MAG =   1.60;   BMIX_MAG =  1.00
     AMIN     =   0.10
     WC   =   100.;   INIMIX=   1;  MIXPRE=   1;  MAXMIX= -45

 Intra band minimization:
   WEIMIN = 0.0000     energy-eigenvalue tresh-hold
   EBREAK =  0.89E-09  absolut break condition
   DEPER  =   0.30     relativ break condition  

   TIME   =   0.40     timestep for ELM

  volume/ion in A,a.u.               =       8.44        56.96
  Fermi-wavevector in a.u.,A,eV,Ry     =   1.013052  1.914391 13.963314  1.026275
  Thomas-Fermi vector in A             =   2.146198

 Write flags
   LWAVE        =      F    write WAVECAR
   LDOWNSAMPLE  =      F    k-point downsampling of WAVECAR
   LCHARG       =      F    write CHGCAR
   LVTOT        =      F    write LOCPOT, total local potential
   LVHAR        =      F    write LOCPOT, Hartree potential only
   LELF         =      F    write electronic localiz. function (ELF)
   LORBIT       =      0    0 simple, 1 ext, 2 COOP (PROOUT), +10 PAW based schemes


 Dipole corrections
   LMONO  =      F    monopole corrections only (constant potential shift)
   LDIPOL =      F    correct potential (dipole corrections)
   IDIPOL =      0    1-x, 2-y, 3-z, 4-all directions 
   EPSILON=  1.0000000 bulk dielectric constant

 Exchange correlation treatment:
   GGA     =    --    GGA type
   LEXCH   =     8    internal setting for exchange type
   LIBXC   =     F    Libxc                    
   VOSKOWN =     0    Vosko Wilk Nusair interpolation
   LHFCALC =     F    Hartree Fock is set to
   LHFONE  =     F    Hartree Fock one center treatment
   AEXX    =    0.0000 exact exchange contribution

 Linear response parameters
   LEPSILON=     F    determine dielectric tensor
   LRPA    =     F    only Hartree local field effects (RPA)
   LNABLA  =     F    use nabla operator in PAW spheres
   LVEL    =     F    velocity operator in full k-point grid
   CSHIFT  =0.1000    complex shift for real part using Kramers Kronig
   OMEGAMAX=  -1.0    maximum frequency
   DEG_THRESHOLD= 0.2000000E-02 threshold for treating states as degnerate
   RTIME   =   -0.100 relaxation time in fs
  (WPLASMAI=    0.000 imaginary part of plasma frequency in eV, 0.658/RTIME)
   DFIELD  = 0.0000000 0.0000000 0.0000000 field for delta impulse in time

  Optional k-point grid parameters
   LKPOINTS_OPT  =     F    use optional k-point grid
   KPOINTS_OPT_MODE=     1    mode for optional k-point grid

 Orbital magnetization related:
   ORBITALMAG=     F  switch on orbital magnetization
   LCHIMAG   =     F  perturbation theory with respect to B field
   DQ        =  0.001000  dq finite difference perturbation B field
   LLRAUG    =     F  two centre corrections for induced B field
   LBONE     =     F  B-component reconstruction in AE one-centre
   LVGVCALC  =     T  calculate vGv susceptibility
   LVGVAPPL  =     F  apply vGv susceptibility instead of pGv for G=0

 Random number generation:
   RANDOM_GENERATOR = DEFAULT
   PCG_SEED         = not used


--------------------------------------------------------------------------------------------------------


 Static calculation
 charge density and potential will be updated during run
 non-spin polarized calculation
 Conjugate gradient for all bands (Freysoldt, et al. PRB 79, 241103 (2009))
 preconditioned conjugated gradient                                        
 perform sub-space diagonalisation
    before iterative eigenvector-optimisation
 modified Broyden-mixing scheme, WC =      100.0
 initial mixing is a Kerker type mixing with AMIX =  0.4000 and BMIX =      1.0000
 Hartree-type preconditioning will be used
 using additional bands           12
 reciprocal scheme for non local part
 use partial core corrections
 no Harris-corrections to forces 
 use gradient corrections 
 use of overlap-Matrix (Vanderbilt PP)
 Gauss-broadening in eV      SIGMA  =   0.01


--------------------------------------------------------------------------------------------------------


  energy-cutoff  :     1000.00
  volume of cell :      135.05
      direct lattice vectors                 reciprocal lattice vectors
     5.130500000  0.000000000  0.000000000     0.194912777  0.000000000  0.000000000
     0.000000000  5.130500000  0.000000000     0.000000000  0.194912777  0.000000000
     0.000000000  0.000000000  5.130500000     0.000000000  0.000000000  0.194912777

  length of vectors
     5.130500000  5.130500000  5.130500000     0.194912777  0.194912777  0.194912777



 k-points in units of 2pi/SCALE and weight: auto                                    
   0.00000000  0.00000000  0.00000000       0.008
   0.03898256  0.00000000  0.00000000       0.016
   0.00000000  0.03898256  0.00000000       0.016
   0.00000000  0.00000000  0.03898256       0.016
   0.07796511  0.00000000  0.00000000       0.016
   0.00000000  0.07796511  0.00000000       0.016
   0.00000000  0.00000000  0.07796511       0.016
   0.03898256  0.03898256  0.00000000       0.016
   0.00000000  0.03898256  0.03898256       0.016
   0.03898256  0.00000000  0.03898256       0.016
  -0.03898256  0.03898256  0.00000000       0.016
  -0.03898256  0.00000000  0.03898256       0.016
   0.00000000 -0.03898256  0.03898256       0.016
   0.07796511  0.03898256  0.00000000       0.016
   0.00000000  0.07796511  0.03898256       0.016
   0.03898256  0.00000000  0.07796511       0.016
  -0.03898256  0.07796511  0.00000000       0.016
  -0.07796511  0.00000000  0.03898256       0.016
   0.00000000  0.03898256  0.07796511       0.016
   0.00000000 -0.07796511  0.03898256       0.016
  -0.03898256  0.00000000  0.07796511       0.016
   0.07796511  0.00000000  0.03898256       0.016
   0.00000000 -0.03898256  0.07796511       0.016
   0.07796511 -0.03898256  0.00000000       0.016
   0.03898256  0.07796511  0.00000000       0.016
   0.07796511  0.07796511  0.00000000       0.016
   0.00000000  0.07796511  0.07796511       0.016
   0.07796511  0.00000000  0.07796511       0.016
  -0.07796511  0.07796511  0.00000000       0.016
  -0.07796511  0.00000000  0.07796511       0.016
   0.00000000 -0.07796511  0.07796511       0.016
   0.03898256  0.03898256  0.03898256       0.016
  -0.03898256  0.03898256  0.03898256       0.016
  -0.03898256 -0.03898256  0.03898256       0.016
   0.03898256 -0.03898256  0.03898256       0.016
   0.07796511  0.03898256  0.03898256       0.016
   0.03898256  0.07796511  0.03898256       0.016
   0.03898256  0.03898256  0.07796511       0.016
  -0.03898256  0.07796511  0.03898256       0.016
  -0.07796511  0.03898256  0.03898256       0.016
  -0.03898256  0.03898256  0.07796511       0.016
  -0.07796511 -0.03898256  0.03898256       0.016
  -0.03898256 -0.07796511  0.03898256       0.016
  -0.03898256 -0.03898256  0.07796511       0.016
   0.03898256 -0.07796511  0.03898256       0.016
   0.07796511 -0.03898256  0.03898256       0.016
   0.03898256 -0.03898256  0.07796511       0.016
   0.07796511  0.07796511  0.03898256       0.016
   0.03898256  0.07796511  0.07796511       0.016
   0.07796511  0.03898256  0.07796511       0.016
  -0.07796511  0.07796511  0.03898256       0.016
  -0.07796511  0.03898256  0.07796511       0.016
  -0.03898256  0.07796511  0.07796511       0.016
  -0.07796511 -0.07796511  0.03898256       0.016
  -0.03898256 -0.07796511  0.07796511       0.016
  -0.07796511 -0.03898256  0.07796511       0.016
   0.07796511 -0.07796511  0.03898256       0.016
   0.07796511 -0.03898256  0.07796511       0.016
   0.03898256 -0.07796511  0.07796511       0.016
   0.07796511  0.07796511  0.07796511       0.016
  -0.07796511  0.07796511  0.07796511       0.016
  -0.07796511 -0.07796511  0.07796511       0.016
   0.07796511 -0.07796511  0.07796511       0.016

 k-points in reciprocal lattice and weights: auto                                    
   0.00000000  0.00000000  0.00000000       0.008
   0.20000000  0.00000000  0.00000000       0.016
   0.00000000  0.20000000  0.00000000       0.016
   0.00000000  0.00000000  0.20000000       0.016
   0.40000000  0.00000000  0.00000000       0.016
   0.00000000  0.40000000  0.00000000       0.016
   0.00000000  0.00000000  0.40000000       0.016
   0.20000000  0.20000000  0.00000000       0.016
   0.00000000  0.20000000  0.20000000       0.016
   0.20000000  0.00000000  0.20000000       0.016
  -0.20000000  0.20000000  0.00000000       0.016
  -0.20000000  0.00000000  0.20000000       0.016
   0.00000000 -0.20000000  0.20000000       0.016
   0.40000000  0.20000000  0.00000000       0.016
   0.00000000  0.40000000  0.20000000       0.016
   0.20000000  0.00000000  0.40000000       0.016
  -0.20000000  0.40000000  0.00000000       0.016
  -0.40000000  0.00000000  0.20000000       0.016
   0.00000000  0.20000000  0.40000000       0.016
   0.00000000 -0.40000000  0.20000000       0.016
  -0.20000000  0.00000000  0.40000000       0.016
   0.40000000  0.00000000  0.20000000       0.016
   0.00000000 -0.20000000  0.40000000       0.016
   0.40000000 -0.20000000  0.00000000       0.016
   0.20000000  0.40000000  0.00000000       0.016
   0.40000000  0.40000000  0.00000000       0.016
   0.00000000  0.40000000  0.40000000       0.016
   0.40000000  0.00000000  0.40000000       0.016
  -0.40000000  0.40000000  0.00000000       0.016
  -0.40000000  0.00000000  0.40000000       0.016
   0.00000000 -0.40000000  0.40000000       0.016
   0.20000000  0.20000000  0.20000000       0.016
  -0.20000000  0.20000000  0.20000000       0.016
  -0.20000000 -0.20000000  0.20000000       0.016
   0.20000000 -0.20000000  0.20000000       0.016
   0.40000000  0.20000000  0.20000000       0.016
   0.20000000  0.40000000  0.20000000       0.016
   0.20000000  0.20000000  0.40000000       0.016
  -0.20000000  0.40000000  0.20000000       0.016
  -0.40000000  0.20000000  0.20000000       0.016
  -0.20000000  0.20000000  0.40000000       0.016
  -0.40000000 -0.20000000  0.20000000       0.016
  -0.20000000 -0.40000000  0.20000000       0.016
  -0.20000000 -0.20000000  0.40000000       0.016
   0.20000000 -0.40000000  0.20000000       0.016
   0.40000000 -0.20000000  0.20000000       0.016
   0.20000000 -0.20000000  0.40000000       0.016
   0.40000000  0.40000000  0.20000000       0.016
   0.20000000  0.40000000  0.40000000       0.016
   0.40000000  0.20000000  0.40000000       0.016
  -0.40000000  0.40000000  0.20000000       0.016
  -0.40000000  0.20000000  0.40000000       0.016
  -0.20000000  0.40000000  0.40000000       0.016
  -0.40000000 -0.40000000  0.20000000       0.016
  -0.20000000 -0.40000000  0.40000000       0.016
  -0.40000000 -0.20000000  0.40000000       0.016
   0.40000000 -0.40000000  0.20000000       0.016
   0.40000000 -0.20000000  0.40000000       0.016
   0.20000000 -0.40000000  0.40000000       0.016
   0.40000000  0.40000000  0.40000000       0.016
  -0.40000000  0.40000000  0.40000000       0.016
  -0.40000000 -0.40000000  0.40000000       0.016
   0.40000000 -0.40000000  0.40000000       0.016

 position of ions in fractional coordinates (direct lattice) 
   0.20362711  0.20362143  0.20363040
   0.70362703  0.29637922  0.79636978
   0.79637620  0.70362109  0.29636868
   0.29637636  0.79637987  0.70363103
   0.36292455  0.27216007  0.10381685
   0.27217311  0.10381141  0.36294383
   0.10380399  0.36291093  0.27216364
   0.86292436  0.22784076  0.89618315
   0.77217332  0.39618939  0.63705596
   0.60380405  0.13708987  0.72783623
   0.72782847  0.60381181  0.13705682
   0.89619601  0.86291010  0.22783767
   0.39619650  0.63709009  0.77216223
   0.13707612  0.72784076  0.60381598
   0.22782897  0.89618859  0.86294272
   0.63707550  0.77215989  0.39618370

 position of ions in cartesian coordinates  (Angst):
   1.04470891  1.04467975  1.04472578
   3.60995847  1.52057361  4.08577516
   4.08580811  3.60992798  1.52051951
   1.52055891  4.08582692  3.60997900
   1.86198440  1.39631721  0.53263233
   1.39638414  0.53260446  1.86208330
   0.53256637  1.86191453  1.39633557
   4.42723342  1.16893701  4.59786767
   3.96163521  2.03264968  3.26841562
   3.09781668  0.70333959  3.73416376
   3.73412397  3.09785652  0.70317001
   4.59793363  4.42716029  1.16892118
   2.03268616  3.26859071  3.96157834
   0.70326905  3.73418703  3.09787790
   1.16887653  4.59789554  4.42732765
   3.26851588  3.96156632  2.03262046



--------------------------------------------------------------------------------------------------------


 k-point   1 :   0.0000 0.0000 0.0000  plane waves:    9771
 k-point   2 :   0.2000 0.0000 0.0000  plane waves:    9711
 k-point   3 :   0.0000 0.2000 0.0000  plane waves:    9711
 k-point   4 :   0.0000 0.0000 0.2000  plane waves:    9711
 k-point   5 :   0.4000 0.0000 0.0000  plane waves:    9722
 k-point   6 :   0.0000 0.4000 0.0000  plane waves:    9722
 k-point   7 :   0.0000 0.0000 0.4000  plane waves:    9722
 k-point   8 :   0.2000 0.2000 0.0000  plane waves:    9663
 k-point   9 :   0.0000 0.2000 0.2000  plane waves:    9663
 k-point  10 :   0.2000 0.0000 0.2000  plane waves:    9663
 k-point  11 :  -0.2000 0.2000 0.0000  plane waves:    9663
 k-point  12 :  -0.2000 0.0000 0.2000  plane waves:    9663
 k-point  13 :   0.0000-0.2000 0.2000  plane waves:    9663
 k-point  14 :   0.4000 0.2000 0.0000  plane waves:    9709
 k-point  15 :   0.0000 0.4000 0.2000  plane waves:    9709
 k-point  16 :   0.2000 0.0000 0.4000  plane waves:    9709
 k-point  17 :  -0.2000 0.4000 0.0000  plane waves:    9709
 k-point  18 :  -0.4000 0.0000 0.2000  plane waves:    9709
 k-point  19 :   0.0000 0.2000 0.4000  plane waves:    9709
 k-point  20 :   0.0000-0.4000 0.2000  plane waves:    9709
 k-point  21 :  -0.2000 0.0000 0.4000  plane waves:    9709
 k-point  22 :   0.4000 0.0000 0.2000  plane waves:    9709
 k-point  23 :   0.0000-0.2000 0.4000  plane waves:    9709
 k-point  24 :   0.4000-0.2000 0.0000  plane waves:    9709
 k-point  25 :   0.2000 0.4000 0.0000  plane waves:    9709
 k-point  26 :   0.4000 0.4000 0.0000  plane waves:    9690
 k-point  27 :   0.0000 0.4000 0.4000  plane waves:    9690
 k-point  28 :   0.4000 0.0000 0.4000  plane waves:    9690
 k-point  29 :  -0.4000 0.4000 0.0000  plane waves:    9690
 k-point  30 :  -0.4000 0.0000 0.4000  plane waves:    9690
 k-point  31 :   0.0000-0.4000 0.4000  plane waves:    9690
 k-point  32 :   0.2000 0.2000 0.2000  plane waves:    9714
 k-point  33 :  -0.2000 0.2000 0.2000  plane waves:    9714
 k-point  34 :  -0.2000-0.2000 0.2000  plane waves:    9714
 k-point  35 :   0.2000-0.2000 0.2000  plane waves:    9714
 k-point  36 :   0.4000 0.2000 0.2000  plane waves:    9701
 k-point  37 :   0.2000 0.4000 0.2000  plane waves:    9701
 k-point  38 :   0.2000 0.2000 0.4000  plane waves:    9701
 k-point  39 :  -0.2000 0.4000 0.2000  plane waves:    9701
 k-point  40 :  -0.4000 0.2000 0.2000  plane waves:    9701
 k-point  41 :  -0.2000 0.2000 0.4000  plane waves:    9701
 k-point  42 :  -0.4000-0.2000 0.2000  plane waves:    9701
 k-point  43 :  -0.2000-0.4000 0.2000  plane waves:    9701
 k-point  44 :  -0.2000-0.2000 0.4000  plane waves:    9701
 k-point  45 :   0.2000-0.4000 0.2000  plane waves:    9701
 k-point  46 :   0.4000-0.2000 0.2000  plane waves:    9701
 k-point  47 :   0.2000-0.2000 0.4000  plane waves:    9701
 k-point  48 :   0.4000 0.4000 0.2000  plane waves:    9707
 k-point  49 :   0.2000 0.4000 0.4000  plane waves:    9707
 k-point  50 :   0.4000 0.2000 0.4000  plane waves:    9707
 k-point  51 :  -0.4000 0.4000 0.2000  plane waves:    9707
 k-point  52 :  -0.4000 0.2000 0.4000  plane waves:    9707
 k-point  53 :  -0.2000 0.4000 0.4000  plane waves:    9707
 k-point  54 :  -0.4000-0.4000 0.2000  plane waves:    9707
 k-point  55 :  -0.2000-0.4000 0.4000  plane waves:    9707
 k-point  56 :  -0.4000-0.2000 0.4000  plane waves:    9707
 k-point  57 :   0.4000-0.4000 0.2000  plane waves:    9707
 k-point  58 :   0.4000-0.2000 0.4000  plane waves:    9707
 k-point  59 :   0.2000-0.4000 0.4000  plane waves:    9707
 k-point  60 :   0.4000 0.4000 0.4000  plane waves:    9688
 k-point  61 :  -0.4000 0.4000 0.4000  plane waves:    9688
 k-point  62 :  -0.4000-0.4000 0.4000  plane waves:    9688
 k-point  63 :   0.4000-0.4000 0.4000  plane waves:    9688

 maximum and minimum number of plane-waves per node :       328      277

 maximum number of plane-waves:      9771
 maximum index in each direction: 
   IXMAX=   13   IYMAX=   13   IZMAX=   13
   IXMIN=  -13   IYMIN=  -13   IZMIN=  -13


 parallel 3D FFT for wavefunctions:
    minimum data exchange during FFTs selected (reduces bandwidth)
 parallel 3D FFT for charge:
    minimum data exchange during FFTs selected (reduces bandwidth)


 total amount of memory used by VASP MPI-rank0    41619. kBytes
=======================================================================

   base      :      30000. kBytes
   nonl-proj :       2728. kBytes
   fftplans  :        601. kBytes
   grid      :       1177. kBytes
   one-center:          3. kBytes
   wavefun   :       7110. kBytes

     INWAV:  cpu time      0.0001: real time      0.0002
 Broyden mixing: mesh for mixing (old mesh)
   NGX = 27   NGY = 27   NGZ = 27
  (NGX  =108   NGY  =108   NGZ  =108)
  gives a total of  19683 points

 initial charge density was supplied:
 charge density of overlapping atoms calculated
 number of electron      32.0000000 magnetization 
 keeping initial charge density in first step


--------------------------------------------------------------------------------------------------------


 Maximum index for augmentation-charges            0 (set IRDMAX)


--------------------------------------------------------------------------------------------------------


 First call to EWALD:  gamma=   0.345
 Maximum number of real-space cells 3x 3x 3
 Maximum number of reciprocal cells 3x 3x 3

    FEWALD:  cpu time      0.0068: real time      0.0068


--------------------------------------- Ionic step        1  -------------------------------------------




--------------------------------------- Iteration      1(   1)  ---------------------------------------


    POTLOK:  cpu time      0.0555: real time      0.0559
    SETDIJ:  cpu time      0.3222: real time      0.3230
    TRIAL :  cpu time      1.3348: real time      1.3363
    CORREC:  cpu time      0.0018: real time      0.0018
    --------------------------------------------
      LOOP:  cpu time      1.7169: real time      1.7196

 eigenvalue-minimisations  :  3528
 total energy-change (2. order) : 0.2000565E+03  (-0.2349701E+04)
 number of electron      32.0000000 magnetization 
 augmentation part       32.0000000 magnetization 

 Free energy of the ion-electron system (eV)
  ---------------------------------------------------
  alpha Z        PSCENC =        20.96897804
  Ewald energy   TEWEN  =      -598.68038505
  -Hartree energ DENC   =      -427.01813708
  -exchange      EXHF   =         0.00000000
  -V(xc)+E(xc)   XCENC  =       118.16873631
  PAW double counting   =       819.31185200     -823.18893431
  entropy T*S    EENTRO =        -0.00014175
  eigenvalues    EBANDS =      -117.52058060
  atomic energy  EATOM  =      1208.01512009
  ---------------------------------------------------
  free energy    TOTEN  =       200.05650765 eV

  energy without entropy =      200.05664940  energy(sigma->0) =      200.05657853


--------------------------------------------------------------------------------------------------------




--------------------------------------- Iteration      1(   2)  ---------------------------------------


    TRIAL :  cpu time      1.6041: real time      1.6047
    CORREC:  cpu time      0.0003: real time      0.0003
    --------------------------------------------
      LOOP:  cpu time      1.6173: real time      1.6356

 eigenvalue-minimisations  :  4868
 total energy-change (2. order) :-0.2640286E+03  (-0.2473879E+03)
 number of electron      32.0000000 magnetization 
 augmentation part       32.0000000 magnetization 

 Free energy of the ion-electron system (eV)
  ---------------------------------------------------
  alpha Z        PSCENC =        20.96897804
  Ewald energy   TEWEN  =      -598.68038505
  -Hartree energ DENC   =      -427.01813708
  -exchange      EXHF   =         0.00000000
  -V(xc)+E(xc)   XCENC  =       118.16873631
  PAW double counting   =       819.31185200     -823.18893431
  entropy T*S    EENTRO =        -0.00000000
  eigenvalues    EBANDS =      -381.54931820
  atomic energy  EATOM  =      1208.01512009
  ---------------------------------------------------
  free energy    TOTEN  =       -63.97208820 eV

  energy without entropy =      -63.97208820  energy(sigma->0) =      -63.97208820


--------------------------------------------------------------------------------------------------------




--------------------------------------- Iteration      1(   3)  ---------------------------------------


    TRIAL :  cpu time      1.5070: real time      1.5076
    CORREC:  cpu time      0.0003: real time      0.0003
    --------------------------------------------
      LOOP:  cpu time      1.5206: real time      1.5370

 eigenvalue-minimisations  :  4560
 total energy-change (2. order) :-0.3958430E+02  (-0.3909301E+02)
 number of electron      32.0000000 magnetization 
 augmentation part       32.0000000 magnetization 

 Free energy of the ion-electron system (eV)
  ---------------------------------------------------
  alpha Z        PSCENC =        20.96897804
  Ewald energy   TEWEN  =      -598.68038505
  -Hartree energ DENC   =      -427.01813708
  -exchange      EXHF   =         0.00000000
  -V(xc)+E(xc)   XCENC  =       118.16873631
  PAW double counting   =       819.31185200     -823.18893431
  entropy T*S    EENTRO =        -0.00000000
  eigenvalues    EBANDS =      -421.13361766
  atomic energy  EATOM  =      1208.01512009
  ---------------------------------------------------
  free energy    TOTEN  =      -103.55638766 eV

  energy without entropy =     -103.55638766  energy(sigma->0) =     -103.55638766


--------------------------------------------------------------------------------------------------------




--------------------------------------- Iteration      1(   4)  ---------------------------------------


    TRIAL :  cpu time      1.4892: real time      1.4897
    CORREC:  cpu time      0.0004: real time      0.0004
    --------------------------------------------
      LOOP:  cpu time      1.5246: real time      1.5252

 eigenvalue-minimisations  :  4536
 total energy-change (2. order) :-0.1227457E+01  (-0.1223377E+01)
 number of electron      32.0000000 magnetization 
 augmentation part       32.0000000 magnetization 

 Free energy of the ion-electron system (eV)
  ---------------------------------------------------
  alpha Z        PSCENC =        20.96897804
  Ewald energy   TEWEN  =      -598.68038505
  -Hartree energ DENC   =      -427.01813708
  -exchange      EXHF   =         0.00000000
  -V(xc)+E(xc)   XCENC  =       118.16873631
  PAW double counting   =       819.31185200     -823.18893431
  entropy T*S    EENTRO =        -0.00000000
  eigenvalues    EBANDS =      -422.36107418
  atomic energy  EATOM  =      1208.01512009
  ---------------------------------------------------
  free energy    TOTEN  =      -104.78384418 eV

  energy without entropy =     -104.78384418  energy(sigma->0) =     -104.78384418


--------------------------------------------------------------------------------------------------------




--------------------------------------- Iteration      1(   5)  ---------------------------------------


    TRIAL :  cpu time      1.4716: real time      1.4724
    CORREC:  cpu time      0.0003: real time      0.0003
    CHARGE:  cpu time      0.1122: real time      0.1129
    --------------------------------------------
      LOOP:  cpu time      1.5976: real time      1.6162

 eigenvalue-minimisations  :  4584
 total energy-change (2. order) :-0.2545326E-01  (-0.2543355E-01)
 number of electron      32.0000000 magnetization 
 augmentation part        0.0225315 magnetization 

 Free energy of the ion-electron system (eV)
  ---------------------------------------------------
  alpha Z        PSCENC =        20.96897804
  Ewald energy   TEWEN  =      -598.68038505
  -Hartree energ DENC   =      -427.01813708
  -exchange      EXHF   =         0.00000000
  -V(xc)+E(xc)   XCENC  =       118.16873631
  PAW double counting   =       819.31185200     -823.18893431
  entropy T*S    EENTRO =        -0.00000000
  eigenvalues    EBANDS =      -422.38652744
  atomic energy  EATOM  =      1208.01512009
  ---------------------------------------------------
  free energy    TOTEN  =      -104.80929745 eV

  energy without entropy =     -104.80929745  energy(sigma->0) =     -104.80929745


--------------------------------------------------------------------------------------------------------




--------------------------------------- Iteration      1(   6)  ---------------------------------------


    POTLOK:  cpu time      0.0328: real time      0.0328
    SETDIJ:  cpu time      0.3143: real time      0.3143
    TRIAL :  cpu time      1.1059: real time      1.1075
    CORREC:  cpu time      0.8395: real time      0.8400
    CHARGE:  cpu time      0.0963: real time      0.0963
    --------------------------------------------
      LOOP:  cpu time      2.4028: real time      2.4201

 eigenvalue-minimisations  :     0
 total energy-change (2. order) : 0.3132809E+02  (-0.1056835E+02)
 number of electron      32.0000000 magnetization 
 augmentation part       -0.0208332 magnetization 

 Free energy of the ion-electron system (eV)
  ---------------------------------------------------
  alpha Z        PSCENC =        20.96897804
  Ewald energy   TEWEN  =      -598.68038505
  -Hartree energ DENC   =      -667.01796851
  -exchange      EXHF   =         0.00000000
  -V(xc)+E(xc)   XCENC  =       140.54789497
  PAW double counting   =      5867.09816520    -5873.47523914
  entropy T*S    EENTRO =        -0.00000000
  eigenvalues    EBANDS =      -170.93777460
  atomic energy  EATOM  =      1208.01512009
  ---------------------------------------------------
  free energy    TOTEN  =       -73.48120900 eV

  energy without entropy =      -73.48120900  energy(sigma->0) =      -73.48120900


--------------------------------------------------------------------------------------------------------




--------------------------------------- Iteration      1(   7)  ---------------------------------------


    POTLOK:  cpu time      0.0329: real time      0.0329
    SETDIJ:  cpu time      0.3132: real time      0.3134
    TRIAL :  cpu time      1.0702: real time      1.0705
    CORREC:  cpu time      0.8319: real time      0.8319
    CHARGE:  cpu time      0.0968: real time      0.0972
    --------------------------------------------
      LOOP:  cpu time      2.3738: real time      2.3751

 eigenvalue-minimisations  :     0
 total energy-change (2. order) :-0.1057148E+02  (-0.1268885E+01)
 number of electron      32.0000000 magnetization 
 augmentation part       -0.0480728 magnetization 

 Free energy of the ion-electron system (eV)
  ---------------------------------------------------
  alpha Z        PSCENC =        20.96897804
  Ewald energy   TEWEN  =      -598.68038505
  -Hartree energ DENC   =      -553.52987451
  -exchange      EXHF   =         0.00000000
  -V(xc)+E(xc)   XCENC  =       131.07449105
  PAW double counting   =     12059.78594047   -12064.45548086
  entropy T*S    EENTRO =        -0.00000000
  eigenvalues    EBANDS =      -287.23147465
  atomic energy  EATOM  =      1208.01512009
  ---------------------------------------------------
  free energy    TOTEN  =       -84.05268542 eV

  energy without entropy =      -84.05268542  energy(sigma->0) =      -84.05268542


--------------------------------------------------------------------------------------------------------




--------------------------------------- Iteration      1(   8)  ---------------------------------------


    POTLOK:  cpu time      0.0331: real time      0.0331
    SETDIJ:  cpu time      0.3132: real time      0.3132
    TRIAL :  cpu time      1.0709: real time      1.0714
    CORREC:  cpu time      0.8299: real time      0.8303
    CHARGE:  cpu time      0.0987: real time      0.0987
    --------------------------------------------
      LOOP:  cpu time      2.3593: real time      2.3771

 eigenvalue-minimisations  :     0
 total energy-change (2. order) :-0.1273630E+01  (-0.4575491E+00)
 number of electron      32.0000000 magnetization 
 augmentation part       -0.0418835 magnetization 

 Free energy of the ion-electron system (eV)
  ---------------------------------------------------
  alpha Z        PSCENC =        20.96897804
  Ewald energy   TEWEN  =      -598.68038505
  -Hartree energ DENC   =      -543.11345613
  -exchange      EXHF   =         0.00000000
  -V(xc)+E(xc)   XCENC  =       130.37021726
  PAW double counting   =     13352.00258172   -13356.45072915
  entropy T*S    EENTRO =        -0.00000000
  eigenvalues    EBANDS =      -298.43864238
  atomic energy  EATOM  =      1208.01512009
  ---------------------------------------------------
  free energy    TOTEN  =       -85.32631560 eV

  energy without entropy =      -85.32631560  energy(sigma->0) =      -85.32631560


--------------------------------------------------------------------------------------------------------




--------------------------------------- Iteration      1(   9)  ---------------------------------------


    POTLOK:  cpu time      0.0329: real time      0.0329
    SETDIJ:  cpu time      0.3136: real time      0.3136
    TRIAL :  cpu time      1.0717: real time      1.0722
    CORREC:  cpu time      0.8312: real time      0.8316
    CHARGE:  cpu time      0.0967: real time      0.0967
    --------------------------------------------
      LOOP:  cpu time      2.3608: real time      2.3762

 eigenvalue-minimisations  :     0
 total energy-change (2. order) :-0.4544562E+00  (-0.1106338E+00)
 number of electron      32.0000000 magnetization 
 augmentation part       -0.0385766 magnetization 

 Free energy of the ion-electron system (eV)
  ---------------------------------------------------
  alpha Z        PSCENC =        20.96897804
  Ewald energy   TEWEN  =      -598.68038505
  -Hartree energ DENC   =      -537.83915016
  -exchange      EXHF   =         0.00000000
  -V(xc)+E(xc)   XCENC  =       129.97583700
  PAW double counting   =     12937.81067673   -12942.24333810
  entropy T*S    EENTRO =        -0.00000000
  eigenvalues    EBANDS =      -303.78851030
  atomic energy  EATOM  =      1208.01512009
  ---------------------------------------------------
  free energy    TOTEN  =       -85.78077176 eV

  energy without entropy =      -85.78077176  energy(sigma->0) =      -85.78077176


--------------------------------------------------------------------------------------------------------




--------------------------------------- Iteration      1(  10)  ---------------------------------------


    POTLOK:  cpu time      0.0328: real time      0.0328
    SETDIJ:  cpu time      0.3138: real time      0.3142
    TRIAL :  cpu time      1.1121: real time      1.1126
    CORREC:  cpu time      0.8285: real time      0.8290
    CHARGE:  cpu time      0.0964: real time      0.0964
    --------------------------------------------
      LOOP:  cpu time      2.4138: real time      2.4154

 eigenvalue-minimisations  :     0
 total energy-change (2. order) :-0.1105106E+00  (-0.1963841E-01)
 number of electron      32.0000000 magnetization 
 augmentation part       -0.0388688 magnetization 

 Free energy of the ion-electron system (eV)
  ---------------------------------------------------
  alpha Z        PSCENC =        20.96897804
  Ewald energy   TEWEN  =      -598.68038505
  -Hartree energ DENC   =      -535.95773975
  -exchange      EXHF   =         0.00000000
  -V(xc)+E(xc)   XCENC  =       129.78822597
  PAW double counting   =     12140.76588959   -12145.24242903
  entropy T*S    EENTRO =        -0.00000000
  eigenvalues    EBANDS =      -305.54894224
  atomic energy  EATOM  =      1208.01512009
  ---------------------------------------------------
  free energy    TOTEN  =       -85.89128237 eV

  energy without entropy =      -85.89128237  energy(sigma->0) =      -85.89128237


--------------------------------------------------------------------------------------------------------




--------------------------------------- Iteration      1(  11)  ---------------------------------------


    POTLOK:  cpu time      0.0328: real time      0.0328
    SETDIJ:  cpu time      0.3132: real time      0.3132
    TRIAL :  cpu time      1.1054: real time      1.1058
    CORREC:  cpu time      0.8278: real time      0.8283
    CHARGE:  cpu time      0.0966: real time      0.0966
    --------------------------------------------
      LOOP:  cpu time      2.3895: real time      2.4068

 eigenvalue-minimisations  :     0
 total energy-change (2. order) :-0.1962381E-01  (-0.3365970E-02)
 number of electron      32.0000000 magnetization 
 augmentation part       -0.0390180 magnetization 

 Free energy of the ion-electron system (eV)
  ---------------------------------------------------
  alpha Z        PSCENC =        20.96897804
  Ewald energy   TEWEN  =      -598.68038505
  -Hartree energ DENC   =      -536.01840490
  -exchange      EXHF   =         0.00000000
  -V(xc)+E(xc)   XCENC  =       129.77560722
  PAW double counting   =     11862.74914661   -11867.24765912
  entropy T*S    EENTRO =        -0.00000000
  eigenvalues    EBANDS =      -305.47330907
  atomic energy  EATOM  =      1208.01512009
  ---------------------------------------------------
  free energy    TOTEN  =       -85.91090618 eV

  energy without entropy =      -85.91090618  energy(sigma->0) =      -85.91090618


--------------------------------------------------------------------------------------------------------




--------------------------------------- Iteration      1(  12)  ---------------------------------------


    POTLOK:  cpu time      0.0325: real time      0.0325
    SETDIJ:  cpu time      0.3138: real time      0.3138
    TRIAL :  cpu time      1.0704: real time      1.0713
    CORREC:  cpu time      0.8309: real time      0.8310
    CHARGE:  cpu time      0.0963: real time      0.0967
    --------------------------------------------
      LOOP:  cpu time      2.3557: real time      2.3750

 eigenvalue-minimisations  :     0
 total energy-change (2. order) :-0.3365077E-02  (-0.6373997E-03)
 number of electron      32.0000000 magnetization 
 augmentation part       -0.0392169 magnetization 

 Free energy of the ion-electron system (eV)
  ---------------------------------------------------
  alpha Z        PSCENC =        20.96897804
  Ewald energy   TEWEN  =      -598.68038505
  -Hartree energ DENC   =      -535.77055107
  -exchange      EXHF   =         0.00000000
  -V(xc)+E(xc)   XCENC  =       129.74600419
  PAW double counting   =     11859.93403321   -11864.43028447
  entropy T*S    EENTRO =        -0.00000000
  eigenvalues    EBANDS =      -305.69718619
  atomic energy  EATOM  =      1208.01512009
  ---------------------------------------------------
  free energy    TOTEN  =       -85.91427125 eV

  energy without entropy =      -85.91427125  energy(sigma->0) =      -85.91427125


--------------------------------------------------------------------------------------------------------




--------------------------------------- Iteration      1(  13)  ---------------------------------------


    POTLOK:  cpu time      0.0325: real time      0.0325
    SETDIJ:  cpu time      0.3141: real time      0.3141
    TRIAL :  cpu time      1.0884: real time      1.0889
    CORREC:  cpu time      0.8292: real time      0.8296
    CHARGE:  cpu time      0.0981: real time      0.0981
    --------------------------------------------
      LOOP:  cpu time      2.3756: real time      2.3941

 eigenvalue-minimisations  :     0
 total energy-change (2. order) :-0.6360709E-03  (-0.1164251E-03)
 number of electron      32.0000000 magnetization 
 augmentation part       -0.0392458 magnetization 

 Free energy of the ion-electron system (eV)
  ---------------------------------------------------
  alpha Z        PSCENC =        20.96897804
  Ewald energy   TEWEN  =      -598.68038505
  -Hartree energ DENC   =      -535.92161918
  -exchange      EXHF   =         0.00000000
  -V(xc)+E(xc)   XCENC  =       129.75580876
  PAW double counting   =     11850.45660137   -11854.95366785
  entropy T*S    EENTRO =        -0.00000000
  eigenvalues    EBANDS =      -305.55574350
  atomic energy  EATOM  =      1208.01512009
  ---------------------------------------------------
  free energy    TOTEN  =       -85.91490732 eV

  energy without entropy =      -85.91490732  energy(sigma->0) =      -85.91490732


--------------------------------------------------------------------------------------------------------




--------------------------------------- Iteration      1(  14)  ---------------------------------------


    POTLOK:  cpu time      0.0321: real time      0.0322
    SETDIJ:  cpu time      0.3141: real time      0.3141
    TRIAL :  cpu time      1.0711: real time      1.0716
    CORREC:  cpu time      0.8278: real time      0.8282
    CHARGE:  cpu time      0.0964: real time      0.0964
    --------------------------------------------
      LOOP:  cpu time      2.3538: real time      2.3717

 eigenvalue-minimisations  :     0
 total energy-change (2. order) :-0.1165919E-03  (-0.2367605E-04)
 number of electron      32.0000000 magnetization 
 augmentation part       -0.0391912 magnetization 

 Free energy of the ion-electron system (eV)
  ---------------------------------------------------
  alpha Z        PSCENC =        20.96897804
  Ewald energy   TEWEN  =      -598.68038505
  -Hartree energ DENC   =      -535.89921774
  -exchange      EXHF   =         0.00000000
  -V(xc)+E(xc)   XCENC  =       129.75315865
  PAW double counting   =     11837.60662404   -11842.10310270
  entropy T*S    EENTRO =        -0.00000000
  eigenvalues    EBANDS =      -305.57619923
  atomic energy  EATOM  =      1208.01512009
  ---------------------------------------------------
  free energy    TOTEN  =       -85.91502392 eV

  energy without entropy =      -85.91502392  energy(sigma->0) =      -85.91502392


--------------------------------------------------------------------------------------------------------




--------------------------------------- Iteration      1(  15)  ---------------------------------------


    POTLOK:  cpu time      0.0327: real time      0.0327
    SETDIJ:  cpu time      0.3138: real time      0.3142
    TRIAL :  cpu time      1.0731: real time      1.0736
    CORREC:  cpu time      0.8279: real time      0.8284
    CHARGE:  cpu time      0.0968: real time      0.0968
    --------------------------------------------
      LOOP:  cpu time      2.3748: real time      2.3763

 eigenvalue-minimisations  :     0
 total energy-change (2. order) :-0.2372635E-04  (-0.4391202E-05)
 number of electron      32.0000000 magnetization 
 augmentation part       -0.0391926 magnetization 

 Free energy of the ion-electron system (eV)
  ---------------------------------------------------
  alpha Z        PSCENC =        20.96897804
  Ewald energy   TEWEN  =      -598.68038505
  -Hartree energ DENC   =      -535.93689639
  -exchange      EXHF   =         0.00000000
  -V(xc)+E(xc)   XCENC  =       129.75652641
  PAW double counting   =     11830.30584074   -11834.80276846
  entropy T*S    EENTRO =        -0.00000000
  eigenvalues    EBANDS =      -305.54146302
  atomic energy  EATOM  =      1208.01512009
  ---------------------------------------------------
  free energy    TOTEN  =       -85.91504764 eV

  energy without entropy =      -85.91504764  energy(sigma->0) =      -85.91504764


--------------------------------------------------------------------------------------------------------




--------------------------------------- Iteration      1(  16)  ---------------------------------------


    POTLOK:  cpu time      0.0327: real time      0.0327
    SETDIJ:  cpu time      0.3139: real time      0.3139
    TRIAL :  cpu time      1.0726: real time      1.0731
    CORREC:  cpu time      0.8290: real time      0.8294
    CHARGE:  cpu time      0.0967: real time      0.0967
    --------------------------------------------
      LOOP:  cpu time      2.3568: real time      2.3766

 eigenvalue-minimisations  :     0
 total energy-change (2. order) :-0.4445044E-05  (-0.8762396E-06)
 number of electron      32.0000000 magnetization 
 augmentation part       -0.0391966 magnetization 

 Free energy of the ion-electron system (eV)
  ---------------------------------------------------
  alpha Z        PSCENC =        20.96897804
  Ewald energy   TEWEN  =      -598.68038505
  -Hartree energ DENC   =      -535.93326369
  -exchange      EXHF   =         0.00000000
  -V(xc)+E(xc)   XCENC  =       129.75632730
  PAW double counting   =     11832.28123144   -11836.77802996
  entropy T*S    EENTRO =        -0.00000000
  eigenvalues    EBANDS =      -305.54503025
  atomic energy  EATOM  =      1208.01512009
  ---------------------------------------------------
  free energy    TOTEN  =       -85.91505209 eV

  energy without entropy =      -85.91505209  energy(sigma->0) =      -85.91505209


--------------------------------------------------------------------------------------------------------




--------------------------------------- Iteration      1(  17)  ---------------------------------------


    POTLOK:  cpu time      0.0328: real time      0.0328
    SETDIJ:  cpu time      0.3143: real time      0.3143
    TRIAL :  cpu time      1.0767: real time      1.0772
    CORREC:  cpu time      0.8286: real time      0.8291
    CHARGE:  cpu time      0.0963: real time      0.0963
    --------------------------------------------
      LOOP:  cpu time      2.3599: real time      2.3799

 eigenvalue-minimisations  :     0
 total energy-change (2. order) :-0.8613770E-06  (-0.1430515E-06)
 number of electron      32.0000000 magnetization 
 augmentation part       -0.0391988 magnetization 

 Free energy of the ion-electron system (eV)
  ---------------------------------------------------
  alpha Z        PSCENC =        20.96897804
  Ewald energy   TEWEN  =      -598.68038505
  -Hartree energ DENC   =      -535.93898915
  -exchange      EXHF   =         0.00000000
  -V(xc)+E(xc)   XCENC  =       129.75693089
  PAW double counting   =     11835.26824558   -11839.76504361
  entropy T*S    EENTRO =        -0.00000000
  eigenvalues    EBANDS =      -305.53990973
  atomic energy  EATOM  =      1208.01512009
  ---------------------------------------------------
  free energy    TOTEN  =       -85.91505295 eV

  energy without entropy =      -85.91505295  energy(sigma->0) =      -85.91505295


--------------------------------------------------------------------------------------------------------




--------------------------------------- Iteration      1(  18)  ---------------------------------------


    POTLOK:  cpu time      0.0324: real time      0.0324
    SETDIJ:  cpu time      0.3131: real time      0.3137
    TRIAL :  cpu time      1.0712: real time      1.0717
    CORREC:  cpu time      0.8283: real time      0.8288
    CHARGE:  cpu time      0.0964: real time      0.0964
    --------------------------------------------
      LOOP:  cpu time      2.3710: real time      2.3728

 eigenvalue-minimisations  :     0
 total energy-change (2. order) :-0.1480403E-06  (-0.2879304E-07)
 number of electron      32.0000000 magnetization 
 augmentation part       -0.0391979 magnetization 

 Free energy of the ion-electron system (eV)
  ---------------------------------------------------
  alpha Z        PSCENC =        20.96897804
  Ewald energy   TEWEN  =      -598.68038505
  -Hartree energ DENC   =      -535.93776409
  -exchange      EXHF   =         0.00000000
  -V(xc)+E(xc)   XCENC  =       129.75685762
  PAW double counting   =     11836.52172156   -11841.01848681
  entropy T*S    EENTRO =        -0.00000000
  eigenvalues    EBANDS =      -305.54109445
  atomic energy  EATOM  =      1208.01512009
  ---------------------------------------------------
  free energy    TOTEN  =       -85.91505310 eV

  energy without entropy =      -85.91505310  energy(sigma->0) =      -85.91505310


--------------------------------------------------------------------------------------------------------




--------------------------------------- Iteration      1(  19)  ---------------------------------------


    POTLOK:  cpu time      0.0323: real time      0.0323
    SETDIJ:  cpu time      0.3138: real time      0.3138
    TRIAL :  cpu time      1.0718: real time      1.0724
    CORREC:  cpu time      0.8281: real time      0.8287
    EDDIAG:  cpu time      0.3835: real time      0.3840
    CHARGE:  cpu time      0.0962: real time      0.0967
    --------------------------------------------
      LOOP:  cpu time      2.7390: real time      2.7567

 eigenvalue-minimisations  :     0
 total energy-change (2. order) :-0.2926390E-07  (-0.3851310E-08)
 number of electron      32.0000000 magnetization 
 augmentation part       -0.0391974 magnetization 

 Free energy of the ion-electron system (eV)
  ---------------------------------------------------
  alpha Z        PSCENC =        20.96897804
  Ewald energy   TEWEN  =      -598.68038505
  -Hartree energ DENC   =      -535.93816102
  -exchange      EXHF   =         0.00000000
  -V(xc)+E(xc)   XCENC  =       129.75689869
  PAW double counting   =     11836.73200638   -11841.22878313
  entropy T*S    EENTRO =        -0.00000000
  eigenvalues    EBANDS =      -305.54072713
  atomic energy  EATOM  =      1208.01512009
  ---------------------------------------------------
  free energy    TOTEN  =       -85.91505313 eV

  energy without entropy =      -85.91505313  energy(sigma->0) =      -85.91505313


--------------------------------------------------------------------------------------------------------


  average scaling for gradient   1.1531


 average (electrostatic) potential at core
  the test charge radii are     0.5902  0.4325
  (the norm of the test charge is              1.0000)
       1-102.2928       2-102.2928       3-102.2929       4-102.2929       5 -44.7498
       6 -44.7486       7 -44.7497       8 -44.7498       9 -44.7486      10 -44.7497
      11 -44.7485      12 -44.7491      13 -44.7491      14 -44.7500      15 -44.7485
      16 -44.7500



 E-fermi :  -2.7680     XC(G=0):  -7.7026     alpha+bet : -5.1342

 Fermi energy:        -2.7680053672

 k-point     1 :       0.0000    0.0000    0.0000
  band No.  band energies     occupation 
      1     -19.1220      2.00000
      2     -18.4730      2.00000
      3     -18.4729      2.00000
      4     -18.4729      2.00000
      5      -8.7217      2.00000
      6      -8.7214      2.00000
      7      -8.7213      2.00000
      8      -7.8951      2.00000
      9      -7.8944      2.00000
     10      -7.6476      2.00000
     11      -7.6475      2.00000
     12      -7.6472      2.00000
     13      -3.3391      2.00000
     14      -3.3390      2.00000
     15      -3.3390      2.00000
     16      -2.8372      2.00000
     17       1.9056      0.00000
     18       5.1658      0.00000
     19       5.1658      0.00000
     20       5.1659      0.00000
     21       6.8124      0.00000
     22       6.8126      0.00000
     23       6.8127      0.00000
     24       8.8643      0.00000
     25       8.8655      0.00000
     26       8.9318      0.00000
     27       9.7983      0.00000
     28       9.8075      0.00000

 k-point     2 :       0.2000    0.0000    0.0000
  band No.  band energies     occupation 
      1     -19.0684      2.00000
      2     -18.5702      2.00000
      3     -18.4668      2.00000
      4     -18.4403      2.00000
      5      -8.7077      2.00000
      6      -8.6975      2.00000
      7      -8.6093      2.00000
      8      -7.9745      2.00000
      9      -7.8547      2.00000
     10      -7.8107      2.00000
     11      -7.6960      2.00000
     12      -7.5700      2.00000
     13      -3.4832      2.00000
     14      -3.4401      2.00000
     15      -3.2107      2.00000
     16      -2.8864      2.00000
     17       2.3188      0.00000
     18       4.9703      0.00000
     19       5.5035      0.00000
     20       5.5477      0.00000
     21       6.6827      0.00000
     22       6.9540      0.00000
     23       7.1734      0.00000
     24       8.4903      0.00000
     25       8.5947      0.00000
     26       9.3282      0.00000
     27       9.3585      0.00000
     28       9.8202      0.00000

 k-point     3 :       0.0000    0.2000    0.0000
  band No.  band energies     occupation 
      1     -19.0684      2.00000
      2     -18.5702      2.00000
      3     -18.4668      2.00000
      4     -18.4403      2.00000
      5      -8.7076      2.00000
      6      -8.6978      2.00000
      7      -8.6091      2.00000
      8      -7.9745      2.00000
      9      -7.8547      2.00000
     10      -7.8109      2.00000
     11      -7.6956      2.00000
     12      -7.5701      2.00000
     13      -3.4833      2.00000
     14      -3.4400      2.00000
     15      -3.2108      2.00000
     16      -2.8864      2.00000
     17       2.3188      0.00000
     18       4.9703      0.00000
     19       5.5034      0.00000
     20       5.5475      0.00000
     21       6.6827      0.00000
     22       6.9539      0.00000
     23       7.1736      0.00000
     24       8.4905      0.00000
     25       8.5949      0.00000
     26       9.3290      0.00000
     27       9.3375      0.00000
     28       9.8141      0.00000

 k-point     4 :       0.0000    0.0000    0.2000
  band No.  band energies     occupation 
      1     -19.0684      2.00000
      2     -18.5702      2.00000
      3     -18.4668      2.00000
      4     -18.4403      2.00000
      5      -8.7078      2.00000
      6      -8.6975      2.00000
      7      -8.6092      2.00000
      8      -7.9749      2.00000
      9      -7.8542      2.00000
     10      -7.8109      2.00000
     11      -7.6960      2.00000
     12      -7.5699      2.00000
     13      -3.4833      2.00000
     14      -3.4400      2.00000
     15      -3.2107      2.00000
     16      -2.8864      2.00000
     17       2.3188      0.00000
     18       4.9704      0.00000
     19       5.5035      0.00000
     20       5.5476      0.00000
     21       6.6828      0.00000
     22       6.9538      0.00000
     23       7.1735      0.00000
     24       8.4908      0.00000
     25       8.5967      0.00000
     26       9.3257      0.00000
     27       9.3418      0.00000
     28       9.8219      0.00000

 k-point     5 :       0.4000    0.0000    0.0000
  band No.  band energies     occupation 
      1     -18.9243      2.00000
      2     -18.7368      2.00000
      3     -18.4526      2.00000
      4     -18.4400      2.00000
      5      -8.6466      2.00000
      6      -8.6435      2.00000
      7      -8.3917      2.00000
      8      -8.1617      2.00000
      9      -7.9218      2.00000
     10      -7.8505      2.00000
     11      -7.7291      2.00000
     12      -7.6163      2.00000
     13      -3.5891      2.00000
     14      -3.5794      2.00000
     15      -3.1063      2.00000
     16      -2.9975      2.00000
     17       3.3194      0.00000
     18       4.4000      0.00000
     19       6.1013      0.00000
     20       6.2036      0.00000
     21       6.9147      0.00000
     22       7.1012      0.00000
     23       7.8946      0.00000
     24       8.1135      0.00000
     25       8.1234      0.00000
     26       8.6123      0.00000
     27       9.3105      0.00000
     28       9.6468      0.00000

 k-point     6 :       0.0000    0.4000    0.0000
  band No.  band energies     occupation 
      1     -18.9243      2.00000
      2     -18.7368      2.00000
      3     -18.4526      2.00000
      4     -18.4400      2.00000
      5      -8.6469      2.00000
      6      -8.6436      2.00000
      7      -8.3916      2.00000
      8      -8.1617      2.00000
      9      -7.9219      2.00000
     10      -7.8504      2.00000
     11      -7.7290      2.00000
     12      -7.6164      2.00000
     13      -3.5892      2.00000
     14      -3.5794      2.00000
     15      -3.1063      2.00000
     16      -2.9975      2.00000
     17       3.3194      0.00000
     18       4.3999      0.00000
     19       6.1011      0.00000
     20       6.2034      0.00000
     21       6.9146      0.00000
     22       7.1011      0.00000
     23       7.8952      0.00000
     24       8.1157      0.00000
     25       8.1188      0.00000
     26       8.6129      0.00000
     27       9.3546      0.00000
     28       9.5157      0.00000

 k-point     7 :       0.0000    0.0000    0.4000
  band No.  band energies     occupation 
      1     -18.9243      2.00000
      2     -18.7368      2.00000
      3     -18.4526      2.00000
      4     -18.4400      2.00000
      5      -8.6466      2.00000
      6      -8.6435      2.00000
      7      -8.3916      2.00000
      8      -8.1619      2.00000
      9      -7.9222      2.00000
     10      -7.8506      2.00000
     11      -7.7288      2.00000
     12      -7.6160      2.00000
     13      -3.5892      2.00000
     14      -3.5794      2.00000
     15      -3.1063      2.00000
     16      -2.9975      2.00000
     17       3.3195      0.00000
     18       4.4001      0.00000
     19       6.1012      0.00000
     20       6.2037      0.00000
     21       6.9147      0.00000
     22       7.1009      0.00000
     23       7.8946      0.00000
     24       8.1150      0.00000
     25       8.1192      0.00000
     26       8.6121      0.00000
     27       9.3861      0.00000
     28       9.5147      0.00000

 k-point     8 :       0.2000    0.2000    0.0000
  band No.  band energies     occupation 
      1     -19.0189      2.00000
      2     -18.5945      2.00000
      3     -18.4956      2.00000
      4     -18.4399      2.00000
      5      -8.7054      2.00000
      6      -8.6649      2.00000
      7      -8.5531      2.00000
      8      -8.0060      2.00000
      9      -7.9226      2.00000
     10      -7.8148      2.00000
     11      -7.7519      2.00000
     12      -7.5300      2.00000
     13      -3.5252      2.00000
     14      -3.5093      2.00000
     15      -3.1620      2.00000
     16      -2.9247      2.00000
     17       2.6757      0.00000
     18       5.0785      0.00000
     19       5.5192      0.00000
     20       5.8832      0.00000
     21       6.7332      0.00000
     22       6.9870      0.00000
     23       7.2643      0.00000
     24       8.1165      0.00000
     25       8.3557      0.00000
     26       9.2040      0.00000
     27       9.3329      0.00000
     28       9.8019      0.00000

[...]
     18       5.0571      0.00000
     19       5.2387      0.00000
     20       5.6741      0.00000
     21       6.9921      0.00000
     22       7.1005      0.00000
     23       7.5792      0.00000
     24       7.7193      0.00000
     25       8.2670      0.00000
     26       8.6847      0.00000
     27       9.0068      0.00000
     28       9.2032      0.00000

 k-point    53 :      -0.2000    0.4000    0.4000
  band No.  band energies     occupation 
      1     -18.7683      2.00000
      2     -18.6941      2.00000
      3     -18.5574      2.00000
      4     -18.5293      2.00000
      5      -8.7381      2.00000
      6      -8.7111      2.00000
      7      -8.5554      2.00000
      8      -8.4621      2.00000
      9      -7.7903      2.00000
     10      -7.7163      2.00000
     11      -7.5906      2.00000
     12      -7.5175      2.00000
     13      -3.5415      2.00000
     14      -3.5185      2.00000
     15      -3.0719      2.00000
     16      -3.0524      2.00000
     17       4.3290      0.00000
     18       5.0571      0.00000
     19       5.2387      0.00000
     20       5.6741      0.00000
     21       6.9921      0.00000
     22       7.1006      0.00000
     23       7.5791      0.00000
     24       7.7193      0.00000
     25       8.2670      0.00000
     26       8.6857      0.00000
     27       9.0090      0.00000
     28       9.2124      0.00000

 k-point    54 :      -0.4000   -0.4000    0.2000
  band No.  band energies     occupation 
      1     -18.7683      2.00000
      2     -18.6941      2.00000
      3     -18.5574      2.00000
      4     -18.5293      2.00000
      5      -8.7380      2.00000
      6      -8.7110      2.00000
      7      -8.5556      2.00000
      8      -8.4622      2.00000
      9      -7.7901      2.00000
     10      -7.7161      2.00000
     11      -7.5907      2.00000
     12      -7.5176      2.00000
     13      -3.5415      2.00000
     14      -3.5185      2.00000
     15      -3.0719      2.00000
     16      -3.0524      2.00000
     17       4.3289      0.00000
     18       5.0571      0.00000
     19       5.2387      0.00000
     20       5.6741      0.00000
     21       6.9921      0.00000
     22       7.1005      0.00000
     23       7.5790      0.00000
     24       7.7192      0.00000
     25       8.2672      0.00000
     26       8.6856      0.00000
     27       9.0068      0.00000
     28       9.2035      0.00000

 k-point    55 :      -0.2000   -0.4000    0.4000
  band No.  band energies     occupation 
      1     -18.7683      2.00000
      2     -18.6941      2.00000
      3     -18.5574      2.00000
      4     -18.5293      2.00000
      5      -8.7381      2.00000
      6      -8.7111      2.00000
      7      -8.5554      2.00000
      8      -8.4621      2.00000
      9      -7.7903      2.00000
     10      -7.7163      2.00000
     11      -7.5906      2.00000
     12      -7.5175      2.00000
     13      -3.5415      2.00000
     14      -3.5185      2.00000
     15      -3.0719      2.00000
     16      -3.0524      2.00000
     17       4.3289      0.00000
     18       5.0571      0.00000
     19       5.2387      0.00000
     20       5.6741      0.00000
     21       6.9921      0.00000
     22       7.1006      0.00000
     23       7.5791      0.00000
     24       7.7193      0.00000
     25       8.2670      0.00000
     26       8.6850      0.00000
     27       9.0093      0.00000
     28       9.2029      0.00000

 k-point    56 :      -0.4000   -0.2000    0.4000
  band No.  band energies     occupation 
      1     -18.7683      2.00000
      2     -18.6941      2.00000
      3     -18.5574      2.00000
      4     -18.5293      2.00000
      5      -8.7380      2.00000
      6      -8.7111      2.00000
      7      -8.5555      2.00000
      8      -8.4622      2.00000
      9      -7.7902      2.00000
     10      -7.7161      2.00000
     11      -7.5906      2.00000
     12      -7.5175      2.00000
     13      -3.5415      2.00000
     14      -3.5185      2.00000
     15      -3.0719      2.00000
     16      -3.0523      2.00000
     17       4.3290      0.00000
     18       5.0571      0.00000
     19       5.2387      0.00000
     20       5.6740      0.00000
     21       6.9921      0.00000
     22       7.1005      0.00000
     23       7.5792      0.00000
     24       7.7193      0.00000
     25       8.2670      0.00000
     26       8.6857      0.00000
     27       9.0095      0.00000
     28       9.2038      0.00000

 k-point    57 :       0.4000   -0.4000    0.2000
  band No.  band energies     occupation 
      1     -18.7683      2.00000
      2     -18.6941      2.00000
      3     -18.5574      2.00000
      4     -18.5293      2.00000
      5      -8.7380      2.00000
      6      -8.7110      2.00000
      7      -8.5556      2.00000
      8      -8.4622      2.00000
      9      -7.7901      2.00000
     10      -7.7161      2.00000
     11      -7.5907      2.00000
     12      -7.5176      2.00000
     13      -3.5415      2.00000
     14      -3.5185      2.00000
     15      -3.0719      2.00000
     16      -3.0524      2.00000
     17       4.3289      0.00000
     18       5.0571      0.00000
     19       5.2387      0.00000
     20       5.6741      0.00000
     21       6.9921      0.00000
     22       7.1005      0.00000
     23       7.5790      0.00000
     24       7.7192      0.00000
     25       8.2672      0.00000
     26       8.6852      0.00000
     27       9.0071      0.00000
     28       9.2038      0.00000

 k-point    58 :       0.4000   -0.2000    0.4000
  band No.  band energies     occupation 
      1     -18.7683      2.00000
      2     -18.6941      2.00000
      3     -18.5574      2.00000
      4     -18.5293      2.00000
      5      -8.7380      2.00000
      6      -8.7111      2.00000
      7      -8.5555      2.00000
      8      -8.4622      2.00000
      9      -7.7902      2.00000
     10      -7.7161      2.00000
     11      -7.5906      2.00000
     12      -7.5175      2.00000
     13      -3.5415      2.00000
     14      -3.5185      2.00000
     15      -3.0719      2.00000
     16      -3.0523      2.00000
     17       4.3290      0.00000
     18       5.0571      0.00000
     19       5.2387      0.00000
     20       5.6740      0.00000
     21       6.9921      0.00000
     22       7.1005      0.00000
     23       7.5792      0.00000
     24       7.7193      0.00000
     25       8.2670      0.00000
     26       8.6847      0.00000
     27       9.0067      0.00000
     28       9.2029      0.00000

 k-point    59 :       0.2000   -0.4000    0.4000
  band No.  band energies     occupation 
      1     -18.7683      2.00000
      2     -18.6941      2.00000
      3     -18.5574      2.00000
      4     -18.5293      2.00000
      5      -8.7381      2.00000
      6      -8.7111      2.00000
      7      -8.5554      2.00000
      8      -8.4621      2.00000
      9      -7.7903      2.00000
     10      -7.7163      2.00000
     11      -7.5906      2.00000
     12      -7.5175      2.00000
     13      -3.5415      2.00000
     14      -3.5185      2.00000
     15      -3.0719      2.00000
     16      -3.0524      2.00000
     17       4.3289      0.00000
     18       5.0571      0.00000
     19       5.2387      0.00000
     20       5.6741      0.00000
     21       6.9921      0.00000
     22       7.1006      0.00000
     23       7.5791      0.00000
     24       7.7193      0.00000
     25       8.2670      0.00000
     26       8.6849      0.00000
     27       9.0087      0.00000
     28       9.2053      0.00000

 k-point    60 :       0.4000    0.4000    0.4000
  band No.  band energies     occupation 
      1     -18.7073      2.00000
      2     -18.6647      2.00000
      3     -18.5953      2.00000
      4     -18.5727      2.00000
      5      -8.7956      2.00000
      6      -8.7929      2.00000
      7      -8.7064      2.00000
      8      -8.6605      2.00000
      9      -7.6209      2.00000
     10      -7.5487      2.00000
     11      -7.5355      2.00000
     12      -7.4642      2.00000
     13      -3.4089      2.00000
     14      -3.3921      2.00000
     15      -3.1130      2.00000
     16      -3.1109      2.00000
     17       4.5431      0.00000
     18       4.9638      0.00000
     19       5.0379      0.00000
     20       5.0638      0.00000
     21       7.1519      0.00000
     22       7.1841      0.00000
     23       7.5091      0.00000
     24       7.5799      0.00000
     25       8.5999      0.00000
     26       8.8415      0.00000
     27       9.0304      0.00000
     28       9.2333      0.00000

 k-point    61 :      -0.4000    0.4000    0.4000
  band No.  band energies     occupation 
      1     -18.7073      2.00000
      2     -18.6647      2.00000
      3     -18.5953      2.00000
      4     -18.5727      2.00000
      5      -8.7956      2.00000
      6      -8.7929      2.00000
      7      -8.7064      2.00000
      8      -8.6605      2.00000
      9      -7.6209      2.00000
     10      -7.5487      2.00000
     11      -7.5355      2.00000
     12      -7.4642      2.00000
     13      -3.4089      2.00000
     14      -3.3921      2.00000
     15      -3.1130      2.00000
     16      -3.1109      2.00000
     17       4.5431      0.00000
     18       4.9638      0.00000
     19       5.0379      0.00000
     20       5.0638      0.00000
     21       7.1519      0.00000
     22       7.1841      0.00000
     23       7.5091      0.00000
     24       7.5799      0.00000
     25       8.5999      0.00000
     26       8.8416      0.00000
     27       9.0304      0.00000
     28       9.2333      0.00000

 k-point    62 :      -0.4000   -0.4000    0.4000
  band No.  band energies     occupation 
      1     -18.7073      2.00000
      2     -18.6647      2.00000
      3     -18.5953      2.00000
      4     -18.5727      2.00000
      5      -8.7955      2.00000
      6      -8.7929      2.00000
      7      -8.7064      2.00000
      8      -8.6605      2.00000
      9      -7.6209      2.00000
     10      -7.5487      2.00000
     11      -7.5355      2.00000
     12      -7.4642      2.00000
     13      -3.4090      2.00000
     14      -3.3921      2.00000
     15      -3.1130      2.00000
     16      -3.1109      2.00000
     17       4.5431      0.00000
     18       4.9638      0.00000
     19       5.0378      0.00000
     20       5.0638      0.00000
     21       7.1519      0.00000
     22       7.1841      0.00000
     23       7.5091      0.00000
     24       7.5799      0.00000
     25       8.6000      0.00000
     26       8.8416      0.00000
     27       9.0303      0.00000
     28       9.2333      0.00000

 k-point    63 :       0.4000   -0.4000    0.4000
  band No.  band energies     occupation 
      1     -18.7073      2.00000
      2     -18.6647      2.00000
      3     -18.5953      2.00000
      4     -18.5727      2.00000
      5      -8.7955      2.00000
      6      -8.7929      2.00000
      7      -8.7064      2.00000
      8      -8.6605      2.00000
      9      -7.6209      2.00000
     10      -7.5487      2.00000
     11      -7.5355      2.00000
     12      -7.4642      2.00000
     13      -3.4090      2.00000
     14      -3.3921      2.00000
     15      -3.1130      2.00000
     16      -3.1109      2.00000
     17       4.5431      0.00000
     18       4.9638      0.00000
     19       5.0378      0.00000
     20       5.0638      0.00000
     21       7.1519      0.00000
     22       7.1841      0.00000
     23       7.5091      0.00000
     24       7.5799      0.00000
     25       8.6000      0.00000
     26       8.8416      0.00000
     27       9.0303      0.00000
     28       9.2335      0.00000


--------------------------------------------------------------------------------------------------------


 soft charge-density along one line, spin component           1
         0         1         2         3         4         5         6         7         8         9
 total charge-density along one line

 pseudopotential strength for first ion, spin component:           1
 19.899  27.865   0.026   0.026   0.026   0.039   0.039   0.039
 27.865  39.020   0.036   0.036   0.036   0.055   0.055   0.055
  0.026   0.036  -5.877  -0.000  -0.000  -8.816  -0.001  -0.001
  0.026   0.036  -0.000  -5.877  -0.000  -0.001  -8.816  -0.001
  0.026   0.036  -0.000  -0.000  -5.877  -0.001  -0.001  -8.816
  0.039   0.055  -8.816  -0.001  -0.001 -13.204  -0.001  -0.001
  0.039   0.055  -0.001  -8.816  -0.001  -0.001 -13.204  -0.001
  0.039   0.055  -0.001  -0.001  -8.816  -0.001  -0.001 -13.204
 total augmentation occupancy for first ion, spin component:           1
 12.469  -5.939   2.204   2.203   2.203  -1.059  -1.058  -1.058
 -5.939   2.949  -1.438  -1.437  -1.437   0.620   0.620   0.620
  2.204  -1.438   7.712  -0.977  -0.977  -3.091   0.567   0.567
  2.203  -1.437  -0.977   7.712  -0.977   0.567  -3.091   0.567
  2.203  -1.437  -0.977  -0.977   7.713   0.567   0.567  -3.092
 -1.059   0.620  -3.091   0.567   0.567   1.261  -0.282  -0.282
 -1.058   0.620   0.567  -3.091   0.567  -0.282   1.261  -0.282
 -1.058   0.620   0.567   0.567  -3.092  -0.282  -0.282   1.261


------------------------ aborting loop because EDIFF is reached ----------------------------------------


    FORLOC:  cpu time      0.0045: real time      0.0045
    FORNL :  cpu time      0.0935: real time      0.0937
    FORCOR:  cpu time      0.3447: real time      0.3447
    OFIELD:  cpu time      0.0016: real time      0.0016

 VOLUME and BASIS-vectors are now :
 -----------------------------------------------------------------------------
  energy-cutoff  :     1000.00
  volume of cell :      135.05
      direct lattice vectors                 reciprocal lattice vectors
     5.130500000  0.000000000  0.000000000     0.194912777  0.000000000  0.000000000
     0.000000000  5.130500000  0.000000000     0.000000000  0.194912777  0.000000000
     0.000000000  0.000000000  5.130500000     0.000000000  0.000000000  0.194912777

  length of vectors
     5.130500000  5.130500000  5.130500000     0.194912777  0.194912777  0.194912777


 FORCES acting on ions:
    Electron-Ion                     Ewald-Force                    Non-Local-Force
 -----------------------------------------------------------------------------------------------
   0.138E+02 0.138E+02 0.138E+02   -.291E+02 -.292E+02 -.291E+02   0.155E+02 0.155E+02 0.155E+02
   0.138E+02 -.138E+02 -.138E+02   -.291E+02 0.292E+02 0.291E+02   0.155E+02 -.155E+02 -.155E+02
   -.138E+02 0.138E+02 -.138E+02   0.291E+02 -.292E+02 0.291E+02   -.155E+02 0.155E+02 -.155E+02
   -.138E+02 -.138E+02 0.138E+02   0.291E+02 0.292E+02 -.291E+02   -.155E+02 -.155E+02 0.155E+02
   -.437E+02 -.202E+02 0.262E+02   0.491E+02 0.225E+02 -.297E+02   -.568E+01 -.238E+01 0.373E+01
   -.202E+02 0.262E+02 -.437E+02   0.225E+02 -.297E+02 0.491E+02   -.238E+01 0.373E+01 -.568E+01
   0.262E+02 -.437E+02 -.202E+02   -.297E+02 0.491E+02 0.225E+02   0.373E+01 -.568E+01 -.238E+01
   -.437E+02 0.202E+02 -.262E+02   0.491E+02 -.225E+02 0.297E+02   -.568E+01 0.238E+01 -.373E+01
   -.202E+02 -.262E+02 0.437E+02   0.225E+02 0.297E+02 -.491E+02   -.238E+01 -.373E+01 0.568E+01
   0.262E+02 0.437E+02 0.202E+02   -.297E+02 -.491E+02 -.225E+02   0.373E+01 0.568E+01 0.238E+01
   0.202E+02 0.262E+02 0.437E+02   -.225E+02 -.297E+02 -.491E+02   0.238E+01 0.373E+01 0.568E+01
   -.262E+02 -.437E+02 0.202E+02   0.297E+02 0.491E+02 -.225E+02   -.373E+01 -.568E+01 0.238E+01
   -.262E+02 0.437E+02 -.202E+02   0.297E+02 -.491E+02 0.225E+02   -.373E+01 0.568E+01 -.238E+01
   0.437E+02 0.202E+02 0.262E+02   -.491E+02 -.225E+02 -.297E+02   0.568E+01 0.238E+01 0.373E+01
   0.202E+02 -.262E+02 -.437E+02   -.225E+02 0.297E+02 0.491E+02   0.238E+01 -.373E+01 -.568E+01
   0.437E+02 -.202E+02 -.262E+02   -.491E+02 0.225E+02 0.297E+02   0.568E+01 -.238E+01 -.373E+01
 -----------------------------------------------------------------------------------------------
   0.199E-02 0.108E-03 0.104E-03   0.284E-13 -.355E-14 0.320E-13   -.199E-02 -.112E-03 -.973E-04


 POSITION                                       TOTAL-FORCE (eV/Angst)
 -----------------------------------------------------------------------------------
      1.04471      1.04468      1.04473         0.175361      0.171901      0.175957
      3.60996      1.52057      4.08578         0.175367     -0.171816     -0.176060
      4.08581      3.60993      1.52052        -0.176034      0.171776     -0.175266
      1.52056      4.08583      3.60998        -0.175866     -0.171962      0.175266
      1.86198      1.39632      0.53263        -0.266599     -0.113566      0.184034
      1.39638      0.53260      1.86208        -0.114664      0.185229     -0.268655
      0.53257      1.86191      1.39634         0.183693     -0.265759     -0.113560
      4.42723      1.16894      4.59787        -0.266563      0.113544     -0.184009
      3.96164      2.03265      3.26842        -0.114699     -0.185271      0.268733
      3.09782      0.70334      3.73416         0.183684      0.265741      0.113559
      3.73412      3.09786      0.70317         0.114649      0.185129      0.268461
      4.59793      4.42716      1.16892        -0.183486     -0.265337      0.113327
      2.03269      3.26859      3.96158        -0.183562      0.265471     -0.113384
      0.70327      3.73419      3.09788         0.267034      0.113756      0.184273
      1.16888      4.59790      4.42733         0.114602     -0.185073     -0.268383
      3.26852      3.96157      2.03262         0.267083     -0.113763     -0.184294
 -----------------------------------------------------------------------------------
    total drift:                               -0.000004     -0.000003      0.000007


--------------------------------------------------------------------------------------------------------



  FREE ENERGIE OF THE ION-ELECTRON SYSTEM (eV)
  ---------------------------------------------------
  free  energy   TOTEN  =       -85.91505313 eV

  energy  without entropy=      -85.91505313  energy(sigma->0) =      -85.91505313



--------------------------------------------------------------------------------------------------------


    POTLOK:  cpu time      0.3491: real time      0.3491


--------------------------------------------------------------------------------------------------------


 stress matrix after NEB project (eV)
      0.00000      0.00000      0.00000
      0.00000      0.00000      0.00000
      0.00000      0.00000      0.00000
  FORCES: max atom, RMS     0.345975    0.333893
  FORCE total and by dimension    1.335572    0.268733
  Stress total and by dimension    0.000000    0.000000
     LOOP+:  cpu time     42.3898: real time     42.6516
    4ORBIT:  cpu time      0.0000: real time      0.0000

 total amount of memory used by VASP MPI-rank0    41619. kBytes
=======================================================================

   base      :      30000. kBytes
   nonl-proj :       2728. kBytes
   fftplans  :        601. kBytes
   grid      :       1177. kBytes
   one-center:          3. kBytes
   wavefun   :       7110. kBytes

  
  
 General timing and accounting informations for this job:
 ========================================================
  
                  Total CPU time used (sec):       46.897
                            User time (sec):       45.338
                          System time (sec):        1.559
                         Elapsed time (sec):       50.418
  
                   Maximum memory used (kb):      194768.
                   Average memory used (kb):          N/A
  
                          Minor page faults:        20841
                          Major page faults:          500
                 Voluntary context switches:         3225
