 vasp.6.4.1 05Apr23 (build Jun  6 2023 14:36:51) complex                         
 executed on        HPECrayEX_GCC date 2024.08.20  14:33:34
 running  256 mpi-ranks, with    1 threads/rank, on    2 nodes
 distrk:  each k-point on  128 cores,    2 groups
 distr:  one band on NCORE=  32 cores,    4 groups


--------------------------------------------------------------------------------------------------------


 INCAR:
   ALGO = Conjugate
   KPAR = 2
   NCORE = 32
   ISMEAR = 0
   SIGMA = 0.01
   PREC = Accurate
   EDIFF = 1E-7
   ENCUT = 1000
   ISIF = 0
   METAGGA = SCAN
   LASPH = .TRUE.
   SYMPREC = 1E-7
   LWAVE = .FALSE.
   LCHARGE = .FALSE.

 POTCAR:    PAW_PBE N_h 06Feb2004                 
 POTCAR:    PAW_PBE H_h 06Feb2004                 
 POTCAR:    PAW_PBE N_h 06Feb2004                 
   VRHFIN =N: s2p3                                                                                  
   LEXCH  = PE                                                                                      
   EATOM  =   264.5486 eV,   19.4438 Ry                                                             
                                                                                                    
   TITEL  = PAW_PBE N_h 06Feb2004                                                                   
   LULTRA =        F    use ultrasoft PP ?                                                          
   IUNSCR =        1    unscreen: 0-lin 1-nonlin 2-no                                               
   RPACOR =    0.800    partial core radius                                                         
   POMASS =   14.001; ZVAL   =    5.000    mass and valenz                                          
   RCORE  =    1.100    outmost cutoff radius                                                       
   RWIGS  =    1.480; RWIGS  =    0.783    wigner-seitz radius (au A)                               
   ENMAX  =  700.000; ENMIN  =  500.000 eV                                                          
   ICORE  =        2    local potential                                                             
   LCOR   =        T    correct aug charges                                                         
   LPAW   =        T    paw PP                                                                      
   EAUG   =  904.640                                                                                
   DEXC   =    0.000                                                                                
   RMAX   =    1.127    core radius for proj-oper                                                   
   RAUG   =    1.300    factor for augmentation sphere                                              
   RDEP   =    1.115    radius for radial grids                                                     
   RDEPT  =    1.106    core radius for aug-charge                                                  
                                                                                                    
   Atomic configuration                                                                             
    4 entries                                                                                       
     n  l   j            E        occ.                                                              
     1  0  0.50      -384.7179   2.0000                                                             
     2  0  0.50       -18.5828   2.0000                                                             
     2  1  0.50        -7.0898   3.0000                                                             
     3  2  1.50        -6.8029   0.0000                                                             
   Description                                                                                      
     l       E           TYP  RCUT    TYP  RCUT                                                     
     0    -18.5828117     23  1.100                                                                 
     0    -15.0750597     23  1.100                                                                 
     1     -7.0897851     23  1.100                                                                 
     1     -1.9663412     23  1.100                                                                 
     2     -6.8029130      7  1.100                                                                 
  local pseudopotential read in
  partial core-charges read in
  partial kinetic energy density read in
  kinetic energy density of atom read in
  atomic valenz-charges read in
  non local Contribution for L=           0  read in
    real space projection operators read in
  non local Contribution for L=           0  read in
    real space projection operators read in
  non local Contribution for L=           1  read in
    real space projection operators read in
  non local Contribution for L=           1  read in
    real space projection operators read in
    PAW grid and wavefunctions read in

   number of l-projection  operators is LMAX  =           4
   number of lm-projection operators is LMMAX =           8

 POTCAR:    PAW_PBE H_h 06Feb2004                 
   VRHFIN =H: ultrasoft test                                                                        
   LEXCH  = PE                                                                                      
   EATOM  =    12.4884 eV,    0.9179 Ry                                                             
                                                                                                    
   TITEL  = PAW_PBE H_h 06Feb2004                                                                   
   LULTRA =        F    use ultrasoft PP ?                                                          
   IUNSCR =        0    unscreen: 0-lin 1-nonlin 2-no                                               
   RPACOR =    0.000    partial core radius                                                         
   POMASS =    1.000; ZVAL   =    1.000    mass and valenz                                          
   RCORE  =    0.800    outmost cutoff radius                                                       
   RWIGS  =    0.700; RWIGS  =    0.370    wigner-seitz radius (au A)                               
   ENMAX  =  700.000; ENMIN  =  350.000 eV                                                          
   RCLOC  =    0.701    cutoff for local pot                                                        
   LCOR   =        T    correct aug charges                                                         
   LPAW   =        T    paw PP                                                                      
   EAUG   = 1000.000                                                                                
   RMAX   =    0.819    core radius for proj-oper                                                   
   RAUG   =    1.000    factor for augmentation sphere                                              
   RDEP   =    0.817    radius for radial grids                                                     
   RDEPT  =    0.817    core radius for aug-charge                                                  
                                                                                                    
   Atomic configuration                                                                             
    2 entries                                                                                       
     n  l   j            E        occ.                                                              
     1  0  0.50        -6.4927   1.0000                                                             
     2  1  0.50        -3.4015   0.0000                                                             
   Description                                                                                      
     l       E           TYP  RCUT    TYP  RCUT                                                     
     0     -6.4927493     23  0.800                                                                 
     0      6.8029130     23  0.800                                                                 
     1     -6.8029130     23  0.800                                                                 
  local pseudopotential read in
  atomic valenz-charges read in
  non local Contribution for L=           0  read in
    real space projection operators read in
  non local Contribution for L=           0  read in
    real space projection operators read in
  non local Contribution for L=           1  read in
    real space projection operators read in
    PAW grid and wavefunctions read in

   number of l-projection  operators is LMAX  =           3
   number of lm-projection operators is LMMAX =           5

  PAW_PBE N_h 06Feb2004                 :
 energy of atom  1       EATOM= -264.5486
 kinetic energy error for atom=    0.0081 (will be added to EATOM!!)
  PAW_PBE H_h 06Feb2004                 :
 energy of atom  2       EATOM=  -12.4884
 kinetic energy error for atom=    0.0006 (will be added to EATOM!!)


 POSCAR:  N  H
  positions in cartesian coordinates
  No initial velocities read in

 METAGGA = SCAN                                        LMAXTAU =  6    LMIXTAU =  F

 exchange correlation table for  LEXCH =        8
   RHO(1)=    0.500       N(1)  =     2000
   RHO(2)=  100.500       N(2)  =     4000

 VTST: version 4.1, (05/19/21)

 CHAIN: initializing optimizer
 
 OPT: Using VASP Dynamics algorithm
 CHAIN: Read ICHAIN            0

 POSCAR:  N  H
  positions in cartesian coordinates
  No initial velocities read in



--------------------------------------------------------------------------------------------------------


 ion  position               nearest neighbor table
   1  0.204  0.204  0.204-   7 1.03   5 1.03   6 1.03
   2  0.704  0.296  0.796-  10 1.03   8 1.03   9 1.03
   3  0.796  0.704  0.296-  12 1.03  16 1.03  11 1.03
   4  0.296  0.796  0.704-  13 1.03  14 1.03  15 1.03
   5  0.363  0.272  0.104-   1 1.03
   6  0.272  0.104  0.363-   1 1.03
   7  0.104  0.363  0.272-   1 1.03
   8  0.863  0.228  0.896-   2 1.03
   9  0.772  0.396  0.637-   2 1.03
  10  0.604  0.137  0.728-   2 1.03
  11  0.728  0.604  0.137-   3 1.03
  12  0.896  0.863  0.228-   3 1.03
  13  0.396  0.637  0.772-   4 1.03
  14  0.137  0.728  0.604-   4 1.03
  15  0.228  0.896  0.863-   4 1.03
  16  0.637  0.772  0.396-   3 1.03

  LATTYP: Found a simple cubic cell.
 ALAT       =     5.1305000000
  
  Lattice vectors:
  
 A1 = (   5.1305000000,   0.0000000000,   0.0000000000)
 A2 = (   0.0000000000,   5.1305000000,   0.0000000000)
 A3 = (   0.0000000000,   0.0000000000,   5.1305000000)


Analysis of symmetry for initial positions (statically):
=====================================================================
 Subroutine PRICEL returns:
 Original cell was already a primitive cell.
 

 Routine SETGRP: Setting up the symmetry group for a 
 simple cubic supercell.


 Subroutine GETGRP returns: Found  1 space group operations
 (whereof  1 operations were pure point group operations)
 out of a pool of 48 trial point group operations.


The static configuration has the point symmetry C_1 .


Analysis of symmetry for dynamics (positions and initial velocities):
=====================================================================
 Subroutine PRICEL returns:
 Original cell was already a primitive cell.
 

 Routine SETGRP: Setting up the symmetry group for a 
 simple cubic supercell.


 Subroutine GETGRP returns: Found  1 space group operations
 (whereof  1 operations were pure point group operations)
 out of a pool of 48 trial point group operations.


The dynamic configuration has the point symmetry C_1 .


 Subroutine INISYM returns: Found  1 space group operations
 (whereof  1 operations are pure point group operations),
 and found     1 'primitive' translations


----------------------------------------------------------------------------------------

                                     Primitive cell                                     

  volume of cell :     135.0452

  direct lattice vectors                    reciprocal lattice vectors
     5.130500000  0.000000000  0.000000000     0.194912777  0.000000000  0.000000000
     0.000000000  5.130500000  0.000000000     0.000000000  0.194912777  0.000000000
     0.000000000  0.000000000  5.130500000     0.000000000  0.000000000  0.194912777

  length of vectors
     5.130500000  5.130500000  5.130500000     0.194912777  0.194912777  0.194912777

  position of ions in fractional coordinates (direct lattice)
     0.203627113  0.203621431  0.203630403
     0.703627029  0.296379224  0.796369782
     0.796376204  0.703621086  0.296368680
     0.296376360  0.796379870  0.703631030
     0.362924549  0.272160065  0.103816846
     0.272173110  0.103811414  0.362943826
     0.103803989  0.362910930  0.272163643
     0.862924359  0.227840758  0.896183154
     0.772173318  0.396189393  0.637055963
     0.603804049  0.137089872  0.727836227
     0.727828470  0.603811815  0.137056818
     0.896196011  0.862910103  0.227837673
     0.396196503  0.637090091  0.772162233
     0.137076124  0.727840763  0.603815983
     0.227828970  0.896188586  0.862942724
     0.637075505  0.772159890  0.396183698

  ion indices of the primitive-cell ions
   primitive index   ion index
                 1           1
                 2           2
                 3           3
                 4           4
                 5           5
                 6           6
                 7           7
                 8           8
                 9           9
                10          10
                11          11
                12          12
                13          13
                14          14
                15          15
                16          16

----------------------------------------------------------------------------------------



 KPOINTS: auto                                    

Automatic generation of k-mesh.
 Grid dimensions read from file:
 generate k-points for:    5    5    5

 Generating k-lattice:

  Cartesian coordinates                     Fractional coordinates (reciprocal lattice)
     0.038982555  0.000000000  0.000000000     0.200000000  0.000000000  0.000000000
     0.000000000  0.038982555  0.000000000     0.000000000  0.200000000  0.000000000
     0.000000000  0.000000000  0.038982555     0.000000000  0.000000000  0.200000000

  Length of vectors
     0.038982555  0.038982555  0.038982555

  Shift w.r.t. Gamma in fractional coordinates (k-lattice)
     0.000000000  0.000000000  0.000000000

 
 Subroutine IBZKPT returns following result:
 ===========================================
 
 Found     63 irreducible k-points:
 
 Following reciprocal coordinates:
            Coordinates               Weight
  0.000000  0.000000  0.000000      1.000000
  0.200000  0.000000  0.000000      2.000000
  0.000000  0.200000  0.000000      2.000000
  0.000000  0.000000  0.200000      2.000000
  0.400000  0.000000  0.000000      2.000000
  0.000000  0.400000  0.000000      2.000000
  0.000000  0.000000  0.400000      2.000000
  0.200000  0.200000  0.000000      2.000000
  0.000000  0.200000  0.200000      2.000000
  0.200000  0.000000  0.200000      2.000000
 -0.200000  0.200000  0.000000      2.000000
 -0.200000  0.000000  0.200000      2.000000
  0.000000 -0.200000  0.200000      2.000000
  0.400000  0.200000  0.000000      2.000000
  0.000000  0.400000  0.200000      2.000000
  0.200000  0.000000  0.400000      2.000000
 -0.200000  0.400000  0.000000      2.000000
 -0.400000  0.000000  0.200000      2.000000
  0.000000  0.200000  0.400000      2.000000
  0.000000 -0.400000  0.200000      2.000000
 -0.200000  0.000000  0.400000      2.000000
  0.400000  0.000000  0.200000      2.000000
  0.000000 -0.200000  0.400000      2.000000
  0.400000 -0.200000  0.000000      2.000000
  0.200000  0.400000  0.000000      2.000000
  0.400000  0.400000  0.000000      2.000000
  0.000000  0.400000  0.400000      2.000000
  0.400000  0.000000  0.400000      2.000000
 -0.400000  0.400000  0.000000      2.000000
 -0.400000  0.000000  0.400000      2.000000
  0.000000 -0.400000  0.400000      2.000000
  0.200000  0.200000  0.200000      2.000000
 -0.200000  0.200000  0.200000      2.000000
 -0.200000 -0.200000  0.200000      2.000000
  0.200000 -0.200000  0.200000      2.000000
  0.400000  0.200000  0.200000      2.000000
  0.200000  0.400000  0.200000      2.000000
  0.200000  0.200000  0.400000      2.000000
 -0.200000  0.400000  0.200000      2.000000
 -0.400000  0.200000  0.200000      2.000000
 -0.200000  0.200000  0.400000      2.000000
 -0.400000 -0.200000  0.200000      2.000000
 -0.200000 -0.400000  0.200000      2.000000
 -0.200000 -0.200000  0.400000      2.000000
  0.200000 -0.400000  0.200000      2.000000
  0.400000 -0.200000  0.200000      2.000000
  0.200000 -0.200000  0.400000      2.000000
  0.400000  0.400000  0.200000      2.000000
  0.200000  0.400000  0.400000      2.000000
  0.400000  0.200000  0.400000      2.000000
 -0.400000  0.400000  0.200000      2.000000
 -0.400000  0.200000  0.400000      2.000000
 -0.200000  0.400000  0.400000      2.000000
 -0.400000 -0.400000  0.200000      2.000000
 -0.200000 -0.400000  0.400000      2.000000
 -0.400000 -0.200000  0.400000      2.000000
  0.400000 -0.400000  0.200000      2.000000
  0.400000 -0.200000  0.400000      2.000000
  0.200000 -0.400000  0.400000      2.000000
  0.400000  0.400000  0.400000      2.000000
 -0.400000  0.400000  0.400000      2.000000
 -0.400000 -0.400000  0.400000      2.000000
  0.400000 -0.400000  0.400000      2.000000
 
 Following cartesian coordinates:
            Coordinates               Weight
  0.000000  0.000000  0.000000      1.000000
  0.038983  0.000000  0.000000      2.000000
  0.000000  0.038983  0.000000      2.000000
  0.000000  0.000000  0.038983      2.000000
  0.077965  0.000000  0.000000      2.000000
  0.000000  0.077965  0.000000      2.000000
  0.000000  0.000000  0.077965      2.000000
  0.038983  0.038983  0.000000      2.000000
  0.000000  0.038983  0.038983      2.000000
  0.038983  0.000000  0.038983      2.000000
 -0.038983  0.038983  0.000000      2.000000
 -0.038983  0.000000  0.038983      2.000000
  0.000000 -0.038983  0.038983      2.000000
  0.077965  0.038983  0.000000      2.000000
  0.000000  0.077965  0.038983      2.000000
  0.038983  0.000000  0.077965      2.000000
 -0.038983  0.077965  0.000000      2.000000
 -0.077965  0.000000  0.038983      2.000000
  0.000000  0.038983  0.077965      2.000000
  0.000000 -0.077965  0.038983      2.000000
 -0.038983  0.000000  0.077965      2.000000
  0.077965  0.000000  0.038983      2.000000
  0.000000 -0.038983  0.077965      2.000000
  0.077965 -0.038983  0.000000      2.000000
  0.038983  0.077965  0.000000      2.000000
  0.077965  0.077965  0.000000      2.000000
  0.000000  0.077965  0.077965      2.000000
  0.077965  0.000000  0.077965      2.000000
 -0.077965  0.077965  0.000000      2.000000
 -0.077965  0.000000  0.077965      2.000000
  0.000000 -0.077965  0.077965      2.000000
  0.038983  0.038983  0.038983      2.000000
 -0.038983  0.038983  0.038983      2.000000
 -0.038983 -0.038983  0.038983      2.000000
  0.038983 -0.038983  0.038983      2.000000
  0.077965  0.038983  0.038983      2.000000
  0.038983  0.077965  0.038983      2.000000
  0.038983  0.038983  0.077965      2.000000
 -0.038983  0.077965  0.038983      2.000000
 -0.077965  0.038983  0.038983      2.000000
 -0.038983  0.038983  0.077965      2.000000
 -0.077965 -0.038983  0.038983      2.000000
 -0.038983 -0.077965  0.038983      2.000000
 -0.038983 -0.038983  0.077965      2.000000
  0.038983 -0.077965  0.038983      2.000000
  0.077965 -0.038983  0.038983      2.000000
  0.038983 -0.038983  0.077965      2.000000
  0.077965  0.077965  0.038983      2.000000
  0.038983  0.077965  0.077965      2.000000
  0.077965  0.038983  0.077965      2.000000
 -0.077965  0.077965  0.038983      2.000000
 -0.077965  0.038983  0.077965      2.000000
 -0.038983  0.077965  0.077965      2.000000
 -0.077965 -0.077965  0.038983      2.000000
 -0.038983 -0.077965  0.077965      2.000000
 -0.077965 -0.038983  0.077965      2.000000
  0.077965 -0.077965  0.038983      2.000000
  0.077965 -0.038983  0.077965      2.000000
  0.038983 -0.077965  0.077965      2.000000
  0.077965  0.077965  0.077965      2.000000
 -0.077965  0.077965  0.077965      2.000000
 -0.077965 -0.077965  0.077965      2.000000
  0.077965 -0.077965  0.077965      2.000000
 


--------------------------------------------------------------------------------------------------------




 Dimension of arrays:
   k-points           NKPTS =     63   k-points in BZ     NKDIM =     63   number of bands    NBANDS=     28
   number of dos      NEDOS =    301   number of ions     NIONS =     16
   non local maximal  LDIM  =      4   non local SUM 2l+1 LMDIM =      8
   total plane-waves  NPLWV = 157464
   max r-space proj   IRMAX =      1   max aug-charges    IRDMAX=   8480
   dimension x,y,z NGX =    54 NGY =   54 NGZ =   54
   dimension x,y,z NGXF=   108 NGYF=  108 NGZF=  108
   support grid    NGXF=   108 NGYF=  108 NGZF=  108
   ions per type =               4  12
   NGX,Y,Z   is equivalent  to a cutoff of  17.50, 17.50, 17.50 a.u.
   NGXF,Y,Z  is equivalent  to a cutoff of  35.00, 35.00, 35.00 a.u.

 SYSTEM =  unknown system                          
 POSCAR =   N  H                                   

 Startparameter for this run:
   NWRITE =      2    write-flag & timer
   PREC   = accura    normal or accurate (medium, high low for compatibility)
   ISTART =      0    job   : 0-new  1-cont  2-samecut
   ICHARG =      2    charge: 1-file 2-atom 10-const
   ISPIN  =      1    spin polarized calculation?
   LNONCOLLINEAR =      F non collinear calculations
   LSORBIT =      F    spin-orbit coupling
   INIWAV =      1    electr: 0-lowe 1-rand  2-diag
   LASPH  =      T    aspherical Exc in radial PAW
 Electronic Relaxation 1
   ENCUT  = 1000.0 eV  73.50 Ry    8.57 a.u.  13.23 13.23 13.23*2*pi/ulx,y,z
   ENINI  = 1000.0     initial cutoff
   ENAUG  = 1000.0 eV  augmentation charge cutoff
   NELM   =     60;   NELMIN=  2; NELMDL= -5     # of ELM steps 
   EDIFF  = 0.1E-06   stopping-criterion for ELM
   LREAL  =      F    real-space projection
   NLSPLINE    = F    spline interpolate recip. space projectors
   LCOMPAT=      F    compatible to vasp.4.4
   GGA_COMPAT  = T    GGA compatible to vasp.4.4-vasp.4.6
   LMAXPAW     = -100 max onsite density
   LMAXMIX     =    2 max onsite mixed and CHGCAR
   VOSKOWN=      0    Vosko Wilk Nusair interpolation
   ROPT   =    0.00000   0.00000
 Ionic relaxation
   EDIFFG = 0.1E-05   stopping-criterion for IOM
   NSW    =      0    number of steps for IOM
   NBLOCK =      1;   KBLOCK =      1    inner block; outer block 
   IBRION =     -1    ionic relax: 0-MD 1-quasi-New 2-CG
   NFREE  =      0    steps in history (QN), initial steepest desc. (CG)
   ISIF   =      0    stress and relaxation
   IWAVPR =     10    prediction:  0-non 1-charg 2-wave 3-comb
   ISYM   =      2    0-nonsym 1-usesym 2-fastsym
   LCORR  =      T    Harris-Foulkes like correction to forces

   POTIM  = 0.5000    time-step for ionic-motion
   TEIN   =    0.0    initial temperature
   TEBEG  =    0.0;   TEEND  =   0.0 temperature during run
   SMASS  =  -3.00    Nose mass-parameter (am)
   estimated Nose-frequenzy (Omega)   =  0.10E-29 period in steps = 0.13E+47 mass=  -0.602E-27a.u.
   SCALEE = 1.0000    scale energy and forces
   NPACO  =    256;   APACO  = 10.0  distance and # of slots for P.C.
   PSTRESS=    0.0 pullay stress

  Mass of Ions in am
   POMASS =  14.00  1.00
  Ionic Valenz
   ZVAL   =   5.00  1.00
  Atomic Wigner-Seitz radii
   RWIGS  =  -1.00 -1.00
  virtual crystal weights 
   VCA    =   1.00  1.00
   NELECT =      32.0000    total number of electrons
   NUPDOWN=      -1.0000    fix difference up-down

 DOS related values:
   EMIN   =  10.00;   EMAX   =-10.00  energy-range for DOS
   EFERMI =   0.00;   METHOD = LEGACY      
   ISMEAR =     0;   SIGMA  =   0.01  broadening in eV -4-tet -1-fermi 0-gaus

 Electronic relaxation 2 (details)
   IALGO  =     58    algorithm
   LDIAG  =      T    sub-space diagonalisation (order eigenvalues)
   LSUBROT=      F    optimize rotation matrix (better conditioning)
   TURBO    =      0    0=normal 1=particle mesh
   IRESTART =      0    0=no restart 2=restart with 2 vectors
   NREBOOT  =      0    no. of reboots
   NMIN     =      0    reboot dimension
   EREF     =   0.00    reference energy to select bands
   IMIX   =      4    mixing-type and parameters
     AMIX     =   0.40;   BMIX     =  1.00
     AMIX_MAG =   1.60;   BMIX_MAG =  1.00
     AMIN     =   0.10
     WC   =   100.;   INIMIX=   1;  MIXPRE=   1;  MAXMIX= -45

 Intra band minimization:
   WEIMIN = 0.0000     energy-eigenvalue tresh-hold
   EBREAK =  0.89E-09  absolut break condition
   DEPER  =   0.30     relativ break condition  

   TIME   =   0.40     timestep for ELM

  volume/ion in A,a.u.               =       8.44        56.96
  Fermi-wavevector in a.u.,A,eV,Ry     =   1.013052  1.914391 13.963314  1.026275
  Thomas-Fermi vector in A             =   2.146198

 Write flags
   LWAVE        =      F    write WAVECAR
   LDOWNSAMPLE  =      F    k-point downsampling of WAVECAR
   LCHARG       =      T    write CHGCAR
   LVTOT        =      F    write LOCPOT, total local potential
   LVHAR        =      F    write LOCPOT, Hartree potential only
   LELF         =      F    write electronic localiz. function (ELF)
   LORBIT       =      0    0 simple, 1 ext, 2 COOP (PROOUT), +10 PAW based schemes


 Dipole corrections
   LMONO  =      F    monopole corrections only (constant potential shift)
   LDIPOL =      F    correct potential (dipole corrections)
   IDIPOL =      0    1-x, 2-y, 3-z, 4-all directions 
   EPSILON=  1.0000000 bulk dielectric constant

 Exchange correlation treatment:
   GGA     =    --    GGA type
   LEXCH   =     8    internal setting for exchange type
   LIBXC   =     F    Libxc                    
   VOSKOWN =     0    Vosko Wilk Nusair interpolation
   LHFCALC =     F    Hartree Fock is set to
   LHFONE  =     F    Hartree Fock one center treatment
   AEXX    =    0.0000 exact exchange contribution

 Linear response parameters
   LEPSILON=     F    determine dielectric tensor
   LRPA    =     F    only Hartree local field effects (RPA)
   LNABLA  =     F    use nabla operator in PAW spheres
   LVEL    =     F    velocity operator in full k-point grid
   CSHIFT  =0.1000    complex shift for real part using Kramers Kronig
   OMEGAMAX=  -1.0    maximum frequency
   DEG_THRESHOLD= 0.2000000E-02 threshold for treating states as degnerate
   RTIME   =   -0.100 relaxation time in fs
  (WPLASMAI=    0.000 imaginary part of plasma frequency in eV, 0.658/RTIME)
   DFIELD  = 0.0000000 0.0000000 0.0000000 field for delta impulse in time

  Optional k-point grid parameters
   LKPOINTS_OPT  =     F    use optional k-point grid
   KPOINTS_OPT_MODE=     1    mode for optional k-point grid

 Orbital magnetization related:
   ORBITALMAG=     F  switch on orbital magnetization
   LCHIMAG   =     F  perturbation theory with respect to B field
   DQ        =  0.001000  dq finite difference perturbation B field
   LLRAUG    =     F  two centre corrections for induced B field
   LBONE     =     F  B-component reconstruction in AE one-centre
   LVGVCALC  =     T  calculate vGv susceptibility
   LVGVAPPL  =     F  apply vGv susceptibility instead of pGv for G=0

 Random number generation:
   RANDOM_GENERATOR = DEFAULT
   PCG_SEED         = not used


--------------------------------------------------------------------------------------------------------


 Static calculation
 charge density and potential will be updated during run
 non-spin polarized calculation
 Conjugate gradient for all bands (Freysoldt, et al. PRB 79, 241103 (2009))
 preconditioned conjugated gradient                                        
 perform sub-space diagonalisation
    before iterative eigenvector-optimisation
 modified Broyden-mixing scheme, WC =      100.0
 initial mixing is a Kerker type mixing with AMIX =  0.4000 and BMIX =      1.0000
 Hartree-type preconditioning will be used
 using additional bands           12
 reciprocal scheme for non local part
 use partial core corrections
 no Harris-corrections to forces 
 use gradient corrections 
 use of overlap-Matrix (Vanderbilt PP)
 Gauss-broadening in eV      SIGMA  =   0.01


--------------------------------------------------------------------------------------------------------


  energy-cutoff  :     1000.00
  volume of cell :      135.05
      direct lattice vectors                 reciprocal lattice vectors
     5.130500000  0.000000000  0.000000000     0.194912777  0.000000000  0.000000000
     0.000000000  5.130500000  0.000000000     0.000000000  0.194912777  0.000000000
     0.000000000  0.000000000  5.130500000     0.000000000  0.000000000  0.194912777

  length of vectors
     5.130500000  5.130500000  5.130500000     0.194912777  0.194912777  0.194912777



 k-points in units of 2pi/SCALE and weight: auto                                    
   0.00000000  0.00000000  0.00000000       0.008
   0.03898256  0.00000000  0.00000000       0.016
   0.00000000  0.03898256  0.00000000       0.016
   0.00000000  0.00000000  0.03898256       0.016
   0.07796511  0.00000000  0.00000000       0.016
   0.00000000  0.07796511  0.00000000       0.016
   0.00000000  0.00000000  0.07796511       0.016
   0.03898256  0.03898256  0.00000000       0.016
   0.00000000  0.03898256  0.03898256       0.016
   0.03898256  0.00000000  0.03898256       0.016
  -0.03898256  0.03898256  0.00000000       0.016
  -0.03898256  0.00000000  0.03898256       0.016
   0.00000000 -0.03898256  0.03898256       0.016
   0.07796511  0.03898256  0.00000000       0.016
   0.00000000  0.07796511  0.03898256       0.016
   0.03898256  0.00000000  0.07796511       0.016
  -0.03898256  0.07796511  0.00000000       0.016
  -0.07796511  0.00000000  0.03898256       0.016
   0.00000000  0.03898256  0.07796511       0.016
   0.00000000 -0.07796511  0.03898256       0.016
  -0.03898256  0.00000000  0.07796511       0.016
   0.07796511  0.00000000  0.03898256       0.016
   0.00000000 -0.03898256  0.07796511       0.016
   0.07796511 -0.03898256  0.00000000       0.016
   0.03898256  0.07796511  0.00000000       0.016
   0.07796511  0.07796511  0.00000000       0.016
   0.00000000  0.07796511  0.07796511       0.016
   0.07796511  0.00000000  0.07796511       0.016
  -0.07796511  0.07796511  0.00000000       0.016
  -0.07796511  0.00000000  0.07796511       0.016
   0.00000000 -0.07796511  0.07796511       0.016
   0.03898256  0.03898256  0.03898256       0.016
  -0.03898256  0.03898256  0.03898256       0.016
  -0.03898256 -0.03898256  0.03898256       0.016
   0.03898256 -0.03898256  0.03898256       0.016
   0.07796511  0.03898256  0.03898256       0.016
   0.03898256  0.07796511  0.03898256       0.016
   0.03898256  0.03898256  0.07796511       0.016
  -0.03898256  0.07796511  0.03898256       0.016
  -0.07796511  0.03898256  0.03898256       0.016
  -0.03898256  0.03898256  0.07796511       0.016
  -0.07796511 -0.03898256  0.03898256       0.016
  -0.03898256 -0.07796511  0.03898256       0.016
  -0.03898256 -0.03898256  0.07796511       0.016
   0.03898256 -0.07796511  0.03898256       0.016
   0.07796511 -0.03898256  0.03898256       0.016
   0.03898256 -0.03898256  0.07796511       0.016
   0.07796511  0.07796511  0.03898256       0.016
   0.03898256  0.07796511  0.07796511       0.016
   0.07796511  0.03898256  0.07796511       0.016
  -0.07796511  0.07796511  0.03898256       0.016
  -0.07796511  0.03898256  0.07796511       0.016
  -0.03898256  0.07796511  0.07796511       0.016
  -0.07796511 -0.07796511  0.03898256       0.016
  -0.03898256 -0.07796511  0.07796511       0.016
  -0.07796511 -0.03898256  0.07796511       0.016
   0.07796511 -0.07796511  0.03898256       0.016
   0.07796511 -0.03898256  0.07796511       0.016
   0.03898256 -0.07796511  0.07796511       0.016
   0.07796511  0.07796511  0.07796511       0.016
  -0.07796511  0.07796511  0.07796511       0.016
  -0.07796511 -0.07796511  0.07796511       0.016
   0.07796511 -0.07796511  0.07796511       0.016

 k-points in reciprocal lattice and weights: auto                                    
   0.00000000  0.00000000  0.00000000       0.008
   0.20000000  0.00000000  0.00000000       0.016
   0.00000000  0.20000000  0.00000000       0.016
   0.00000000  0.00000000  0.20000000       0.016
   0.40000000  0.00000000  0.00000000       0.016
   0.00000000  0.40000000  0.00000000       0.016
   0.00000000  0.00000000  0.40000000       0.016
   0.20000000  0.20000000  0.00000000       0.016
   0.00000000  0.20000000  0.20000000       0.016
   0.20000000  0.00000000  0.20000000       0.016
  -0.20000000  0.20000000  0.00000000       0.016
  -0.20000000  0.00000000  0.20000000       0.016
   0.00000000 -0.20000000  0.20000000       0.016
   0.40000000  0.20000000  0.00000000       0.016
   0.00000000  0.40000000  0.20000000       0.016
   0.20000000  0.00000000  0.40000000       0.016
  -0.20000000  0.40000000  0.00000000       0.016
  -0.40000000  0.00000000  0.20000000       0.016
   0.00000000  0.20000000  0.40000000       0.016
   0.00000000 -0.40000000  0.20000000       0.016
  -0.20000000  0.00000000  0.40000000       0.016
   0.40000000  0.00000000  0.20000000       0.016
   0.00000000 -0.20000000  0.40000000       0.016
   0.40000000 -0.20000000  0.00000000       0.016
   0.20000000  0.40000000  0.00000000       0.016
   0.40000000  0.40000000  0.00000000       0.016
   0.00000000  0.40000000  0.40000000       0.016
   0.40000000  0.00000000  0.40000000       0.016
  -0.40000000  0.40000000  0.00000000       0.016
  -0.40000000  0.00000000  0.40000000       0.016
   0.00000000 -0.40000000  0.40000000       0.016
   0.20000000  0.20000000  0.20000000       0.016
  -0.20000000  0.20000000  0.20000000       0.016
  -0.20000000 -0.20000000  0.20000000       0.016
   0.20000000 -0.20000000  0.20000000       0.016
   0.40000000  0.20000000  0.20000000       0.016
   0.20000000  0.40000000  0.20000000       0.016
   0.20000000  0.20000000  0.40000000       0.016
  -0.20000000  0.40000000  0.20000000       0.016
  -0.40000000  0.20000000  0.20000000       0.016
  -0.20000000  0.20000000  0.40000000       0.016
  -0.40000000 -0.20000000  0.20000000       0.016
  -0.20000000 -0.40000000  0.20000000       0.016
  -0.20000000 -0.20000000  0.40000000       0.016
   0.20000000 -0.40000000  0.20000000       0.016
   0.40000000 -0.20000000  0.20000000       0.016
   0.20000000 -0.20000000  0.40000000       0.016
   0.40000000  0.40000000  0.20000000       0.016
   0.20000000  0.40000000  0.40000000       0.016
   0.40000000  0.20000000  0.40000000       0.016
  -0.40000000  0.40000000  0.20000000       0.016
  -0.40000000  0.20000000  0.40000000       0.016
  -0.20000000  0.40000000  0.40000000       0.016
  -0.40000000 -0.40000000  0.20000000       0.016
  -0.20000000 -0.40000000  0.40000000       0.016
  -0.40000000 -0.20000000  0.40000000       0.016
   0.40000000 -0.40000000  0.20000000       0.016
   0.40000000 -0.20000000  0.40000000       0.016
   0.20000000 -0.40000000  0.40000000       0.016
   0.40000000  0.40000000  0.40000000       0.016
  -0.40000000  0.40000000  0.40000000       0.016
  -0.40000000 -0.40000000  0.40000000       0.016
   0.40000000 -0.40000000  0.40000000       0.016

 position of ions in fractional coordinates (direct lattice) 
   0.20362711  0.20362143  0.20363040
   0.70362703  0.29637922  0.79636978
   0.79637620  0.70362109  0.29636868
   0.29637636  0.79637987  0.70363103
   0.36292455  0.27216007  0.10381685
   0.27217311  0.10381141  0.36294383
   0.10380399  0.36291093  0.27216364
   0.86292436  0.22784076  0.89618315
   0.77217332  0.39618939  0.63705596
   0.60380405  0.13708987  0.72783623
   0.72782847  0.60381181  0.13705682
   0.89619601  0.86291010  0.22783767
   0.39619650  0.63709009  0.77216223
   0.13707612  0.72784076  0.60381598
   0.22782897  0.89618859  0.86294272
   0.63707550  0.77215989  0.39618370

 position of ions in cartesian coordinates  (Angst):
   1.04470891  1.04467975  1.04472578
   3.60995847  1.52057361  4.08577516
   4.08580811  3.60992798  1.52051951
   1.52055891  4.08582692  3.60997900
   1.86198440  1.39631721  0.53263233
   1.39638414  0.53260446  1.86208330
   0.53256637  1.86191453  1.39633557
   4.42723342  1.16893701  4.59786767
   3.96163521  2.03264968  3.26841562
   3.09781668  0.70333959  3.73416376
   3.73412397  3.09785652  0.70317001
   4.59793363  4.42716029  1.16892118
   2.03268616  3.26859071  3.96157834
   0.70326905  3.73418703  3.09787790
   1.16887653  4.59789554  4.42732765
   3.26851588  3.96156632  2.03262046



--------------------------------------------------------------------------------------------------------


 k-point   1 :   0.0000 0.0000 0.0000  plane waves:    9771
 k-point   2 :   0.2000 0.0000 0.0000  plane waves:    9711
 k-point   3 :   0.0000 0.2000 0.0000  plane waves:    9711
 k-point   4 :   0.0000 0.0000 0.2000  plane waves:    9711
 k-point   5 :   0.4000 0.0000 0.0000  plane waves:    9722
 k-point   6 :   0.0000 0.4000 0.0000  plane waves:    9722
 k-point   7 :   0.0000 0.0000 0.4000  plane waves:    9722
 k-point   8 :   0.2000 0.2000 0.0000  plane waves:    9663
 k-point   9 :   0.0000 0.2000 0.2000  plane waves:    9663
 k-point  10 :   0.2000 0.0000 0.2000  plane waves:    9663
 k-point  11 :  -0.2000 0.2000 0.0000  plane waves:    9663
 k-point  12 :  -0.2000 0.0000 0.2000  plane waves:    9663
 k-point  13 :   0.0000-0.2000 0.2000  plane waves:    9663
 k-point  14 :   0.4000 0.2000 0.0000  plane waves:    9709
 k-point  15 :   0.0000 0.4000 0.2000  plane waves:    9709
 k-point  16 :   0.2000 0.0000 0.4000  plane waves:    9709
 k-point  17 :  -0.2000 0.4000 0.0000  plane waves:    9709
 k-point  18 :  -0.4000 0.0000 0.2000  plane waves:    9709
 k-point  19 :   0.0000 0.2000 0.4000  plane waves:    9709
 k-point  20 :   0.0000-0.4000 0.2000  plane waves:    9709
 k-point  21 :  -0.2000 0.0000 0.4000  plane waves:    9709
 k-point  22 :   0.4000 0.0000 0.2000  plane waves:    9709
 k-point  23 :   0.0000-0.2000 0.4000  plane waves:    9709
 k-point  24 :   0.4000-0.2000 0.0000  plane waves:    9709
 k-point  25 :   0.2000 0.4000 0.0000  plane waves:    9709
 k-point  26 :   0.4000 0.4000 0.0000  plane waves:    9690
 k-point  27 :   0.0000 0.4000 0.4000  plane waves:    9690
 k-point  28 :   0.4000 0.0000 0.4000  plane waves:    9690
 k-point  29 :  -0.4000 0.4000 0.0000  plane waves:    9690
 k-point  30 :  -0.4000 0.0000 0.4000  plane waves:    9690
 k-point  31 :   0.0000-0.4000 0.4000  plane waves:    9690
 k-point  32 :   0.2000 0.2000 0.2000  plane waves:    9714
 k-point  33 :  -0.2000 0.2000 0.2000  plane waves:    9714
 k-point  34 :  -0.2000-0.2000 0.2000  plane waves:    9714
 k-point  35 :   0.2000-0.2000 0.2000  plane waves:    9714
 k-point  36 :   0.4000 0.2000 0.2000  plane waves:    9701
 k-point  37 :   0.2000 0.4000 0.2000  plane waves:    9701
 k-point  38 :   0.2000 0.2000 0.4000  plane waves:    9701
 k-point  39 :  -0.2000 0.4000 0.2000  plane waves:    9701
 k-point  40 :  -0.4000 0.2000 0.2000  plane waves:    9701
 k-point  41 :  -0.2000 0.2000 0.4000  plane waves:    9701
 k-point  42 :  -0.4000-0.2000 0.2000  plane waves:    9701
 k-point  43 :  -0.2000-0.4000 0.2000  plane waves:    9701
 k-point  44 :  -0.2000-0.2000 0.4000  plane waves:    9701
 k-point  45 :   0.2000-0.4000 0.2000  plane waves:    9701
 k-point  46 :   0.4000-0.2000 0.2000  plane waves:    9701
 k-point  47 :   0.2000-0.2000 0.4000  plane waves:    9701
 k-point  48 :   0.4000 0.4000 0.2000  plane waves:    9707
 k-point  49 :   0.2000 0.4000 0.4000  plane waves:    9707
 k-point  50 :   0.4000 0.2000 0.4000  plane waves:    9707
 k-point  51 :  -0.4000 0.4000 0.2000  plane waves:    9707
 k-point  52 :  -0.4000 0.2000 0.4000  plane waves:    9707
 k-point  53 :  -0.2000 0.4000 0.4000  plane waves:    9707
 k-point  54 :  -0.4000-0.4000 0.2000  plane waves:    9707
 k-point  55 :  -0.2000-0.4000 0.4000  plane waves:    9707
 k-point  56 :  -0.4000-0.2000 0.4000  plane waves:    9707
 k-point  57 :   0.4000-0.4000 0.2000  plane waves:    9707
 k-point  58 :   0.4000-0.2000 0.4000  plane waves:    9707
 k-point  59 :   0.2000-0.4000 0.4000  plane waves:    9707
 k-point  60 :   0.4000 0.4000 0.4000  plane waves:    9688
 k-point  61 :  -0.4000 0.4000 0.4000  plane waves:    9688
 k-point  62 :  -0.4000-0.4000 0.4000  plane waves:    9688
 k-point  63 :   0.4000-0.4000 0.4000  plane waves:    9688

 maximum and minimum number of plane-waves per node :       328      277

 maximum number of plane-waves:      9771
 maximum index in each direction: 
   IXMAX=   13   IYMAX=   13   IZMAX=   13
   IXMIN=  -13   IYMIN=  -13   IZMIN=  -13


 parallel 3D FFT for wavefunctions:
    minimum data exchange during FFTs selected (reduces bandwidth)
 parallel 3D FFT for charge:
    minimum data exchange during FFTs selected (reduces bandwidth)


 total amount of memory used by VASP MPI-rank0    41619. kBytes
=======================================================================

   base      :      30000. kBytes
   nonl-proj :       2728. kBytes
   fftplans  :        601. kBytes
   grid      :       1177. kBytes
   one-center:          3. kBytes
   wavefun   :       7110. kBytes

     INWAV:  cpu time      0.0001: real time      0.0004
 Broyden mixing: mesh for mixing (old mesh)
   NGX = 27   NGY = 27   NGZ = 27
  (NGX  =108   NGY  =108   NGZ  =108)
  gives a total of  19683 points

 initial charge density was supplied:
 charge density of overlapping atoms calculated
 number of electron      32.0000000 magnetization 
 keeping initial charge density in first step


--------------------------------------------------------------------------------------------------------


 Maximum index for augmentation-charges            0 (set IRDMAX)


--------------------------------------------------------------------------------------------------------


 First call to EWALD:  gamma=   0.345
 Maximum number of real-space cells 3x 3x 3
 Maximum number of reciprocal cells 3x 3x 3

    FEWALD:  cpu time      0.0216: real time      0.0216


--------------------------------------- Ionic step        1  -------------------------------------------




--------------------------------------- Iteration      1(   1)  ---------------------------------------


    POTLOK:  cpu time      0.0529: real time      0.0534
    SETDIJ:  cpu time      0.3201: real time      0.3202
    TRIAL :  cpu time      1.3479: real time      1.3503
    CORREC:  cpu time      0.0018: real time      0.0019
    --------------------------------------------
      LOOP:  cpu time      1.7273: real time      1.7305

 eigenvalue-minimisations  :  3528
 total energy-change (2. order) : 0.2015451E+03  (-0.2352174E+04)
 number of electron      32.0000000 magnetization 
 augmentation part       32.0000000 magnetization 

 Free energy of the ion-electron system (eV)
  ---------------------------------------------------
  alpha Z        PSCENC =        20.96897804
  Ewald energy   TEWEN  =      -598.68038505
  -Hartree energ DENC   =      -427.01813708
  -exchange      EXHF   =         0.00000000
  -V(xc)+E(xc)   XCENC  =       118.01159999
  PAW double counting   =       819.22654376     -822.88675839
  entropy T*S    EENTRO =        -0.00015996
  eigenvalues    EBANDS =      -116.09170636
  atomic energy  EATOM  =      1208.01512009
  ---------------------------------------------------
  free energy    TOTEN  =       201.54509505 eV

  energy without entropy =      201.54525501  energy(sigma->0) =      201.54517503


--------------------------------------------------------------------------------------------------------




--------------------------------------- Iteration      1(   2)  ---------------------------------------


    TRIAL :  cpu time      1.5632: real time      1.5636
    CORREC:  cpu time      0.0003: real time      0.0003
    --------------------------------------------
      LOOP:  cpu time      1.5783: real time      1.5950

 eigenvalue-minimisations  :  4868
 total energy-change (2. order) :-0.2638703E+03  (-0.2472025E+03)
 number of electron      32.0000000 magnetization 
 augmentation part       32.0000000 magnetization 

 Free energy of the ion-electron system (eV)
  ---------------------------------------------------
  alpha Z        PSCENC =        20.96897804
  Ewald energy   TEWEN  =      -598.68038505
  -Hartree energ DENC   =      -427.01813708
  -exchange      EXHF   =         0.00000000
  -V(xc)+E(xc)   XCENC  =       118.01159999
  PAW double counting   =       819.22654376     -822.88675839
  entropy T*S    EENTRO =        -0.00000000
  eigenvalues    EBANDS =      -379.96219741
  atomic energy  EATOM  =      1208.01512009
  ---------------------------------------------------
  free energy    TOTEN  =       -62.32523604 eV

  energy without entropy =      -62.32523604  energy(sigma->0) =      -62.32523604


--------------------------------------------------------------------------------------------------------




--------------------------------------- Iteration      1(   3)  ---------------------------------------


    TRIAL :  cpu time      1.4791: real time      1.4798
    CORREC:  cpu time      0.0004: real time      0.0004
    --------------------------------------------
      LOOP:  cpu time      1.4926: real time      1.5100

 eigenvalue-minimisations  :  4552
 total energy-change (2. order) :-0.3953649E+02  (-0.3904383E+02)
 number of electron      32.0000000 magnetization 
 augmentation part       32.0000000 magnetization 

 Free energy of the ion-electron system (eV)
  ---------------------------------------------------
  alpha Z        PSCENC =        20.96897804
  Ewald energy   TEWEN  =      -598.68038505
  -Hartree energ DENC   =      -427.01813708
  -exchange      EXHF   =         0.00000000
  -V(xc)+E(xc)   XCENC  =       118.01159999
  PAW double counting   =       819.22654376     -822.88675839
  entropy T*S    EENTRO =        -0.00000000
  eigenvalues    EBANDS =      -419.49869199
  atomic energy  EATOM  =      1208.01512009
  ---------------------------------------------------
  free energy    TOTEN  =      -101.86173062 eV

  energy without entropy =     -101.86173062  energy(sigma->0) =     -101.86173062


--------------------------------------------------------------------------------------------------------




--------------------------------------- Iteration      1(   4)  ---------------------------------------


    TRIAL :  cpu time      1.5002: real time      1.5007
    CORREC:  cpu time      0.0003: real time      0.0003
    --------------------------------------------
      LOOP:  cpu time      1.5298: real time      1.5304

 eigenvalue-minimisations  :  4544
 total energy-change (2. order) :-0.1241271E+01  (-0.1237120E+01)
 number of electron      32.0000000 magnetization 
 augmentation part       32.0000000 magnetization 

 Free energy of the ion-electron system (eV)
  ---------------------------------------------------
  alpha Z        PSCENC =        20.96897804
  Ewald energy   TEWEN  =      -598.68038505
  -Hartree energ DENC   =      -427.01813708
  -exchange      EXHF   =         0.00000000
  -V(xc)+E(xc)   XCENC  =       118.01159999
  PAW double counting   =       819.22654376     -822.88675839
  entropy T*S    EENTRO =        -0.00000000
  eigenvalues    EBANDS =      -420.73996345
  atomic energy  EATOM  =      1208.01512009
  ---------------------------------------------------
  free energy    TOTEN  =      -103.10300208 eV

  energy without entropy =     -103.10300208  energy(sigma->0) =     -103.10300208


--------------------------------------------------------------------------------------------------------




--------------------------------------- Iteration      1(   5)  ---------------------------------------


    TRIAL :  cpu time      1.4779: real time      1.4787
    CORREC:  cpu time      0.0003: real time      0.0003
    CHARGE:  cpu time      0.1112: real time      0.1124
    --------------------------------------------
      LOOP:  cpu time      1.6025: real time      1.6224

 eigenvalue-minimisations  :  4576
 total energy-change (2. order) :-0.2585061E-01  (-0.2583030E-01)
 number of electron      32.0000000 magnetization 
 augmentation part        0.0231816 magnetization 

 Free energy of the ion-electron system (eV)
  ---------------------------------------------------
  alpha Z        PSCENC =        20.96897804
  Ewald energy   TEWEN  =      -598.68038505
  -Hartree energ DENC   =      -427.01813708
  -exchange      EXHF   =         0.00000000
  -V(xc)+E(xc)   XCENC  =       118.01159999
  PAW double counting   =       819.22654376     -822.88675839
  entropy T*S    EENTRO =        -0.00000000
  eigenvalues    EBANDS =      -420.76581406
  atomic energy  EATOM  =      1208.01512009
  ---------------------------------------------------
  free energy    TOTEN  =      -103.12885270 eV

  energy without entropy =     -103.12885270  energy(sigma->0) =     -103.12885270


--------------------------------------------------------------------------------------------------------




--------------------------------------- Iteration      1(   6)  ---------------------------------------


    POTLOK:  cpu time      0.0329: real time      0.0329
    SETDIJ:  cpu time      0.3149: real time      0.3149
    TRIAL :  cpu time      1.1060: real time      1.1073
    CORREC:  cpu time      0.8424: real time      0.8434
    CHARGE:  cpu time      0.0968: real time      0.0968
    --------------------------------------------
      LOOP:  cpu time      2.4082: real time      2.4238

 eigenvalue-minimisations  :     0
 total energy-change (2. order) : 0.3055231E+02  (-0.1013212E+02)
 number of electron      32.0000000 magnetization 
 augmentation part       -0.0195253 magnetization 

 Free energy of the ion-electron system (eV)
  ---------------------------------------------------
  alpha Z        PSCENC =        20.96897804
  Ewald energy   TEWEN  =      -598.68038505
  -Hartree energ DENC   =      -664.02238557
  -exchange      EXHF   =         0.00000000
  -V(xc)+E(xc)   XCENC  =       140.82036314
  PAW double counting   =      5722.85550993    -5728.83688423
  entropy T*S    EENTRO =        -0.00000000
  eigenvalues    EBANDS =      -173.69685881
  atomic energy  EATOM  =      1208.01512009
  ---------------------------------------------------
  free energy    TOTEN  =       -72.57654245 eV

  energy without entropy =      -72.57654245  energy(sigma->0) =      -72.57654245


--------------------------------------------------------------------------------------------------------




--------------------------------------- Iteration      1(   7)  ---------------------------------------


    POTLOK:  cpu time      0.0328: real time      0.0328
    SETDIJ:  cpu time      0.3146: real time      0.3149
    TRIAL :  cpu time      1.0788: real time      1.0792
    CORREC:  cpu time      0.8332: real time      0.8339
    CHARGE:  cpu time      0.1013: real time      0.1013
    --------------------------------------------
      LOOP:  cpu time      2.3738: real time      2.3918

 eigenvalue-minimisations  :     0
 total energy-change (2. order) :-0.1013502E+02  (-0.1187119E+01)
 number of electron      32.0000000 magnetization 
 augmentation part       -0.0460399 magnetization 

 Free energy of the ion-electron system (eV)
  ---------------------------------------------------
  alpha Z        PSCENC =        20.96897804
  Ewald energy   TEWEN  =      -598.68038505
  -Hartree energ DENC   =      -553.02877481
  -exchange      EXHF   =         0.00000000
  -V(xc)+E(xc)   XCENC  =       131.47914215
  PAW double counting   =     11740.94783611   -11745.28183796
  entropy T*S    EENTRO =        -0.00000000
  eigenvalues    EBANDS =      -287.13164293
  atomic energy  EATOM  =      1208.01512009
  ---------------------------------------------------
  free energy    TOTEN  =       -82.71156437 eV

  energy without entropy =      -82.71156437  energy(sigma->0) =      -82.71156437


--------------------------------------------------------------------------------------------------------




--------------------------------------- Iteration      1(   8)  ---------------------------------------


    POTLOK:  cpu time      0.0413: real time      0.0413
    SETDIJ:  cpu time      0.3057: real time      0.3057
    TRIAL :  cpu time      1.0846: real time      1.0851
    CORREC:  cpu time      0.8390: real time      0.8394
    CHARGE:  cpu time      0.0968: real time      0.0968
    --------------------------------------------
      LOOP:  cpu time      2.3786: real time      2.3983

 eigenvalue-minimisations  :     0
 total energy-change (2. order) :-0.1191554E+01  (-0.4317348E+00)
 number of electron      32.0000000 magnetization 
 augmentation part       -0.0402481 magnetization 

 Free energy of the ion-electron system (eV)
  ---------------------------------------------------
  alpha Z        PSCENC =        20.96897804
  Ewald energy   TEWEN  =      -598.68038505
  -Hartree energ DENC   =      -542.96923943
  -exchange      EXHF   =         0.00000000
  -V(xc)+E(xc)   XCENC  =       130.77521003
  PAW double counting   =     13150.33060759   -13154.45115023
  entropy T*S    EENTRO =        -0.00000000
  eigenvalues    EBANDS =      -297.89225919
  atomic energy  EATOM  =      1208.01512009
  ---------------------------------------------------
  free energy    TOTEN  =       -83.90311815 eV

  energy without entropy =      -83.90311815  energy(sigma->0) =      -83.90311815


--------------------------------------------------------------------------------------------------------




--------------------------------------- Iteration      1(   9)  ---------------------------------------


    POTLOK:  cpu time      0.0325: real time      0.0325
    SETDIJ:  cpu time      0.3146: real time      0.3146
    TRIAL :  cpu time      1.0802: real time      1.0806
    CORREC:  cpu time      0.8327: real time      0.8331
    CHARGE:  cpu time      0.0967: real time      0.0967
    --------------------------------------------
      LOOP:  cpu time      2.3683: real time      2.3873

 eigenvalue-minimisations  :     0
 total energy-change (2. order) :-0.4285261E+00  (-0.1056094E+00)
 number of electron      32.0000000 magnetization 
 augmentation part       -0.0372467 magnetization 

 Free energy of the ion-electron system (eV)
  ---------------------------------------------------
  alpha Z        PSCENC =        20.96897804
  Ewald energy   TEWEN  =      -598.68038505
  -Hartree energ DENC   =      -537.58234252
  -exchange      EXHF   =         0.00000000
  -V(xc)+E(xc)   XCENC  =       130.33827472
  PAW double counting   =     12903.53103814   -12907.62892667
  entropy T*S    EENTRO =        -0.00000000
  eigenvalues    EBANDS =      -303.29340098
  atomic energy  EATOM  =      1208.01512009
  ---------------------------------------------------
  free energy    TOTEN  =       -84.33164423 eV

  energy without entropy =      -84.33164423  energy(sigma->0) =      -84.33164423


--------------------------------------------------------------------------------------------------------




--------------------------------------- Iteration      1(  10)  ---------------------------------------


    POTLOK:  cpu time      0.0321: real time      0.0321
    SETDIJ:  cpu time      0.3140: real time      0.3144
    TRIAL :  cpu time      1.0813: real time      1.0818
    CORREC:  cpu time      0.8335: real time      0.8340
    CHARGE:  cpu time      0.0968: real time      0.0968
    --------------------------------------------
      LOOP:  cpu time      2.3871: real time      2.3887

 eigenvalue-minimisations  :     0
 total energy-change (2. order) :-0.1053760E+00  (-0.1904606E-01)
 number of electron      32.0000000 magnetization 
 augmentation part       -0.0377076 magnetization 

 Free energy of the ion-electron system (eV)
  ---------------------------------------------------
  alpha Z        PSCENC =        20.96897804
  Ewald energy   TEWEN  =      -598.68038505
  -Hartree energ DENC   =      -535.63473170
  -exchange      EXHF   =         0.00000000
  -V(xc)+E(xc)   XCENC  =       130.12621743
  PAW double counting   =     12138.79573359   -12142.93352975
  entropy T*S    EENTRO =        -0.00000000
  eigenvalues    EBANDS =      -305.09442283
  atomic energy  EATOM  =      1208.01512009
  ---------------------------------------------------
  free energy    TOTEN  =       -84.43702018 eV

  energy without entropy =      -84.43702018  energy(sigma->0) =      -84.43702018


--------------------------------------------------------------------------------------------------------




--------------------------------------- Iteration      1(  11)  ---------------------------------------


    POTLOK:  cpu time      0.0327: real time      0.0327
    SETDIJ:  cpu time      0.3146: real time      0.3146
    TRIAL :  cpu time      1.0922: real time      1.0926
    CORREC:  cpu time      0.8345: real time      0.8349
    CHARGE:  cpu time      0.0966: real time      0.0966
    --------------------------------------------
      LOOP:  cpu time      2.3832: real time      2.4013

 eigenvalue-minimisations  :     0
 total energy-change (2. order) :-0.1896508E-01  (-0.3228338E-02)
 number of electron      32.0000000 magnetization 
 augmentation part       -0.0379282 magnetization 

 Free energy of the ion-electron system (eV)
  ---------------------------------------------------
  alpha Z        PSCENC =        20.96897804
  Ewald energy   TEWEN  =      -598.68038505
  -Hartree energ DENC   =      -535.71895063
  -exchange      EXHF   =         0.00000000
  -V(xc)+E(xc)   XCENC  =       130.10636302
  PAW double counting   =     11832.61871351   -11836.77785374
  entropy T*S    EENTRO =        -0.00000000
  eigenvalues    EBANDS =      -304.98797049
  atomic energy  EATOM  =      1208.01512009
  ---------------------------------------------------
  free energy    TOTEN  =       -84.45598526 eV

  energy without entropy =      -84.45598526  energy(sigma->0) =      -84.45598526


--------------------------------------------------------------------------------------------------------




--------------------------------------- Iteration      1(  12)  ---------------------------------------


    POTLOK:  cpu time      0.0327: real time      0.0327
    SETDIJ:  cpu time      0.3171: real time      0.3175
    TRIAL :  cpu time      1.1000: real time      1.1004
    CORREC:  cpu time      0.8329: real time      0.8330
    CHARGE:  cpu time      0.0970: real time      0.0973
    --------------------------------------------
      LOOP:  cpu time      2.3943: real time      2.4108

 eigenvalue-minimisations  :     0
 total energy-change (2. order) :-0.3206569E-02  (-0.6168489E-03)
 number of electron      32.0000000 magnetization 
 augmentation part       -0.0381570 magnetization 

 Free energy of the ion-electron system (eV)
  ---------------------------------------------------
  alpha Z        PSCENC =        20.96897804
  Ewald energy   TEWEN  =      -598.68038505
  -Hartree energ DENC   =      -535.48288207
  -exchange      EXHF   =         0.00000000
  -V(xc)+E(xc)   XCENC  =       130.07304338
  PAW double counting   =     11814.06125914   -11818.21861698
  entropy T*S    EENTRO =        -0.00000000
  eigenvalues    EBANDS =      -305.19570837
  atomic energy  EATOM  =      1208.01512009
  ---------------------------------------------------
  free energy    TOTEN  =       -84.45919183 eV

  energy without entropy =      -84.45919183  energy(sigma->0) =      -84.45919183


--------------------------------------------------------------------------------------------------------




--------------------------------------- Iteration      1(  13)  ---------------------------------------


    POTLOK:  cpu time      0.0326: real time      0.0326
    SETDIJ:  cpu time      0.3145: real time      0.3145
    TRIAL :  cpu time      1.0792: real time      1.0796
    CORREC:  cpu time      0.8360: real time      0.8364
    CHARGE:  cpu time      0.0968: real time      0.0968
    --------------------------------------------
      LOOP:  cpu time      2.3716: real time      2.3908

 eigenvalue-minimisations  :     0
 total energy-change (2. order) :-0.6058757E-03  (-0.1182919E-03)
 number of electron      32.0000000 magnetization 
 augmentation part       -0.0382012 magnetization 

 Free energy of the ion-electron system (eV)
  ---------------------------------------------------
  alpha Z        PSCENC =        20.96897804
  Ewald energy   TEWEN  =      -598.68038505
  -Hartree energ DENC   =      -535.65145684
  -exchange      EXHF   =         0.00000000
  -V(xc)+E(xc)   XCENC  =       130.08408394
  PAW double counting   =     11798.56683313   -11802.72517971
  entropy T*S    EENTRO =        -0.00000000
  eigenvalues    EBANDS =      -305.03779130
  atomic energy  EATOM  =      1208.01512009
  ---------------------------------------------------
  free energy    TOTEN  =       -84.45979770 eV

  energy without entropy =      -84.45979770  energy(sigma->0) =      -84.45979770


--------------------------------------------------------------------------------------------------------




--------------------------------------- Iteration      1(  14)  ---------------------------------------


    POTLOK:  cpu time      0.0326: real time      0.0326
    SETDIJ:  cpu time      0.3146: real time      0.3146
    TRIAL :  cpu time      1.0864: real time      1.0869
    CORREC:  cpu time      0.8325: real time      0.8330
    CHARGE:  cpu time      0.0966: real time      0.0966
    --------------------------------------------
      LOOP:  cpu time      2.3762: real time      2.3946

 eigenvalue-minimisations  :     0
 total energy-change (2. order) :-0.1161620E-03  (-0.2555080E-04)
 number of electron      32.0000000 magnetization 
 augmentation part       -0.0381471 magnetization 

 Free energy of the ion-electron system (eV)
  ---------------------------------------------------
  alpha Z        PSCENC =        20.96897804
  Ewald energy   TEWEN  =      -598.68038505
  -Hartree energ DENC   =      -535.62188311
  -exchange      EXHF   =         0.00000000
  -V(xc)+E(xc)   XCENC  =       130.08124894
  PAW double counting   =     11784.68776589   -11788.84542847
  entropy T*S    EENTRO =        -0.00000000
  eigenvalues    EBANDS =      -305.06533020
  atomic energy  EATOM  =      1208.01512009
  ---------------------------------------------------
  free energy    TOTEN  =       -84.45991387 eV

  energy without entropy =      -84.45991387  energy(sigma->0) =      -84.45991387


--------------------------------------------------------------------------------------------------------




--------------------------------------- Iteration      1(  15)  ---------------------------------------


    POTLOK:  cpu time      0.0327: real time      0.0327
    SETDIJ:  cpu time      0.3137: real time      0.3142
    TRIAL :  cpu time      1.0921: real time      1.0925
    CORREC:  cpu time      0.8323: real time      0.8327
    CHARGE:  cpu time      0.0965: real time      0.0965
    --------------------------------------------
      LOOP:  cpu time      2.3969: real time      2.3984

 eigenvalue-minimisations  :     0
 total energy-change (2. order) :-0.2477988E-04  (-0.2805360E-05)
 number of electron      32.0000000 magnetization 
 augmentation part       -0.0381540 magnetization 

 Free energy of the ion-electron system (eV)
  ---------------------------------------------------
  alpha Z        PSCENC =        20.96897804
  Ewald energy   TEWEN  =      -598.68038505
  -Hartree energ DENC   =      -535.67330383
  -exchange      EXHF   =         0.00000000
  -V(xc)+E(xc)   XCENC  =       130.08639331
  PAW double counting   =     11776.94731064   -11781.10553869
  entropy T*S    EENTRO =        -0.00000000
  eigenvalues    EBANDS =      -305.01851314
  atomic energy  EATOM  =      1208.01512009
  ---------------------------------------------------
  free energy    TOTEN  =       -84.45993865 eV

  energy without entropy =      -84.45993865  energy(sigma->0) =      -84.45993865


--------------------------------------------------------------------------------------------------------




--------------------------------------- Iteration      1(  16)  ---------------------------------------


    POTLOK:  cpu time      0.0324: real time      0.0324
    SETDIJ:  cpu time      0.3151: real time      0.3151
    TRIAL :  cpu time      1.0802: real time      1.0806
    CORREC:  cpu time      0.8324: real time      0.8329
    CHARGE:  cpu time      0.0967: real time      0.0967
    --------------------------------------------
      LOOP:  cpu time      2.3685: real time      2.3882

 eigenvalue-minimisations  :     0
 total energy-change (2. order) :-0.2734503E-05  (-0.6254151E-06)
 number of electron      32.0000000 magnetization 
 augmentation part       -0.0381586 magnetization 

 Free energy of the ion-electron system (eV)
  ---------------------------------------------------
  alpha Z        PSCENC =        20.96897804
  Ewald energy   TEWEN  =      -598.68038505
  -Hartree energ DENC   =      -535.66621804
  -exchange      EXHF   =         0.00000000
  -V(xc)+E(xc)   XCENC  =       130.08592088
  PAW double counting   =     11778.79127490   -11782.94934363
  entropy T*S    EENTRO =        -0.00000000
  eigenvalues    EBANDS =      -305.02528856
  atomic energy  EATOM  =      1208.01512009
  ---------------------------------------------------
  free energy    TOTEN  =       -84.45994138 eV

  energy without entropy =      -84.45994138  energy(sigma->0) =      -84.45994138


--------------------------------------------------------------------------------------------------------




--------------------------------------- Iteration      1(  17)  ---------------------------------------


    POTLOK:  cpu time      0.0325: real time      0.0325
    SETDIJ:  cpu time      0.3140: real time      0.3144
    TRIAL :  cpu time      1.0783: real time      1.0786
    CORREC:  cpu time      0.8329: real time      0.8329
    CHARGE:  cpu time      0.0962: real time      0.0966
    --------------------------------------------
      LOOP:  cpu time      2.3696: real time      2.3859

 eigenvalue-minimisations  :     0
 total energy-change (2. order) :-0.3593723E-06  (-0.1646766E-06)
 number of electron      32.0000000 magnetization 
 augmentation part       -0.0381599 magnetization 

 Free energy of the ion-electron system (eV)
  ---------------------------------------------------
  alpha Z        PSCENC =        20.96897804
  Ewald energy   TEWEN  =      -598.68038505
  -Hartree energ DENC   =      -535.66424806
  -exchange      EXHF   =         0.00000000
  -V(xc)+E(xc)   XCENC  =       130.08580832
  PAW double counting   =     11780.23599251   -11784.39399801
  entropy T*S    EENTRO =        -0.00000000
  eigenvalues    EBANDS =      -305.02720958
  atomic energy  EATOM  =      1208.01512009
  ---------------------------------------------------
  free energy    TOTEN  =       -84.45994174 eV

  energy without entropy =      -84.45994174  energy(sigma->0) =      -84.45994174


--------------------------------------------------------------------------------------------------------




--------------------------------------- Iteration      1(  18)  ---------------------------------------


    POTLOK:  cpu time      0.0332: real time      0.0332
    SETDIJ:  cpu time      0.3140: real time      0.3141
    TRIAL :  cpu time      1.0779: real time      1.0784
    CORREC:  cpu time      0.8331: real time      0.8335
    EDDIAG:  cpu time      0.3868: real time      0.3873
    CHARGE:  cpu time      0.0968: real time      0.0968
    --------------------------------------------
      LOOP:  cpu time      2.7719: real time      2.7734

 eigenvalue-minimisations  :     0
 total energy-change (2. order) :-0.4574758E-07  (-0.8065663E-07)
 number of electron      32.0000000 magnetization 
 augmentation part       -0.0381607 magnetization 

 Free energy of the ion-electron system (eV)
  ---------------------------------------------------
  alpha Z        PSCENC =        20.96897804
  Ewald energy   TEWEN  =      -598.68038505
  -Hartree energ DENC   =      -535.66514058
  -exchange      EXHF   =         0.00000000
  -V(xc)+E(xc)   XCENC  =       130.08591740
  PAW double counting   =     11780.99014912   -11785.14814782
  entropy T*S    EENTRO =        -0.00000000
  eigenvalues    EBANDS =      -305.02643299
  atomic energy  EATOM  =      1208.01512009
  ---------------------------------------------------
  free energy    TOTEN  =       -84.45994178 eV

  energy without entropy =      -84.45994178  energy(sigma->0) =      -84.45994178


--------------------------------------------------------------------------------------------------------


  average scaling for gradient   1.2661


 average (electrostatic) potential at core
  the test charge radii are     0.5902  0.4325
  (the norm of the test charge is              1.0000)
       1-102.2632       2-102.2632       3-102.2633       4-102.2633       5 -44.6737
       6 -44.6721       7 -44.6739       8 -44.6738       9 -44.6720      10 -44.6739
      11 -44.6733      12 -44.6711      13 -44.6710      14 -44.6728      15 -44.6733
      16 -44.6728



 E-fermi :  -2.7479     XC(G=0):  -7.6947     alpha+bet : -5.1342

 Fermi energy:        -2.7478958126

 k-point     1 :       0.0000    0.0000    0.0000
  band No.  band energies     occupation 
      1     -19.1460      2.00000
      2     -18.5012      2.00000
      3     -18.5011      2.00000
      4     -18.5011      2.00000
      5      -8.6909      2.00000
      6      -8.6907      2.00000
      7      -8.6904      2.00000
      8      -7.8629      2.00000
      9      -7.8621      2.00000
     10      -7.6163      2.00000
     11      -7.6160      2.00000
     12      -7.6158      2.00000
     13      -3.3103      2.00000
     14      -3.3101      2.00000
     15      -3.3101      2.00000
     16      -2.8058      2.00000
     17       1.8953      0.00000
     18       5.1573      0.00000
     19       5.1574      0.00000
     20       5.1574      0.00000
     21       6.8323      0.00000
     22       6.8325      0.00000
     23       6.8326      0.00000
     24       8.8434      0.00000
     25       8.8447      0.00000
     26       8.9243      0.00000
     27       9.8497      0.00000
     28       9.8586      0.00000

 k-point     2 :       0.2000    0.0000    0.0000
  band No.  band energies     occupation 
      1     -19.0928      2.00000
      2     -18.5980      2.00000
      3     -18.4950      2.00000
      4     -18.4685      2.00000
      5      -8.6767      2.00000
      6      -8.6666      2.00000
      7      -8.5789      2.00000
      8      -7.9429      2.00000
      9      -7.8223      2.00000
     10      -7.7795      2.00000
     11      -7.6645      2.00000
     12      -7.5381      2.00000
     13      -3.4552      2.00000
     14      -3.4121      2.00000
     15      -3.1810      2.00000
     16      -2.8553      2.00000
     17       2.3092      0.00000
     18       4.9555      0.00000
     19       5.4942      0.00000
     20       5.5448      0.00000
     21       6.6976      0.00000
     22       6.9741      0.00000
     23       7.1988      0.00000
     24       8.4835      0.00000
     25       8.5769      0.00000
     26       9.3727      0.00000
     27       9.3786      0.00000
     28       9.8624      0.00000

 k-point     3 :       0.0000    0.2000    0.0000
  band No.  band energies     occupation 
      1     -19.0928      2.00000
      2     -18.5980      2.00000
      3     -18.4950      2.00000
      4     -18.4685      2.00000
      5      -8.6766      2.00000
      6      -8.6671      2.00000
      7      -8.5786      2.00000
      8      -7.9427      2.00000
      9      -7.8225      2.00000
     10      -7.7798      2.00000
     11      -7.6640      2.00000
     12      -7.5383      2.00000
     13      -3.4553      2.00000
     14      -3.4120      2.00000
     15      -3.1811      2.00000
     16      -2.8553      2.00000
     17       2.3092      0.00000
     18       4.9555      0.00000
     19       5.4942      0.00000
     20       5.5447      0.00000
     21       6.6976      0.00000
     22       6.9740      0.00000
     23       7.1990      0.00000
     24       8.4839      0.00000
     25       8.5770      0.00000
     26       9.3369      0.00000
     27       9.3792      0.00000
     28       9.8564      0.00000

 k-point     4 :       0.0000    0.0000    0.2000
  band No.  band energies     occupation 
      1     -19.0928      2.00000
      2     -18.5980      2.00000
      3     -18.4950      2.00000
      4     -18.4685      2.00000
      5      -8.6767      2.00000
      6      -8.6668      2.00000
      7      -8.5786      2.00000
      8      -7.9432      2.00000
      9      -7.8219      2.00000
     10      -7.7799      2.00000
     11      -7.6643      2.00000
     12      -7.5381      2.00000
     13      -3.4553      2.00000
     14      -3.4119      2.00000
     15      -3.1811      2.00000
     16      -2.8553      2.00000
     17       2.3093      0.00000
     18       4.9556      0.00000
     19       5.4942      0.00000
     20       5.5448      0.00000
     21       6.6977      0.00000
     22       6.9738      0.00000
     23       7.1989      0.00000
     24       8.4846      0.00000
     25       8.5795      0.00000
     26       9.3303      0.00000
     27       9.3855      0.00000
     28       9.8676      0.00000

 k-point     5 :       0.4000    0.0000    0.0000
  band No.  band energies     occupation 
      1     -18.9497      2.00000
      2     -18.7635      2.00000
      3     -18.4808      2.00000
      4     -18.4681      2.00000
      5      -8.6156      2.00000
      6      -8.6124      2.00000
      7      -8.3615      2.00000
      8      -8.1310      2.00000
      9      -7.8905      2.00000
     10      -7.8188      2.00000
     11      -7.6970      2.00000
     12      -7.5841      2.00000
     13      -3.5618      2.00000
     14      -3.5523      2.00000
     15      -3.0760      2.00000
     16      -2.9668      2.00000
     17       3.3095      0.00000
     18       4.3864      0.00000
     19       6.0948      0.00000
     20       6.1900      0.00000
     21       6.9355      0.00000
     22       7.1243      0.00000
     23       7.9245      0.00000
     24       8.1078      0.00000
     25       8.1169      0.00000
     26       8.6550      0.00000
     27       9.3348      0.00000
     28       9.6728      0.00000

 k-point     6 :       0.0000    0.4000    0.0000
  band No.  band energies     occupation 
      1     -18.9497      2.00000
      2     -18.7635      2.00000
      3     -18.4808      2.00000
      4     -18.4681      2.00000
      5      -8.6160      2.00000
      6      -8.6124      2.00000
      7      -8.3612      2.00000
      8      -8.1308      2.00000
      9      -7.8906      2.00000
     10      -7.8186      2.00000
     11      -7.6970      2.00000
     12      -7.5843      2.00000
     13      -3.5618      2.00000
     14      -3.5522      2.00000
     15      -3.0761      2.00000
     16      -2.9668      2.00000
     17       3.3095      0.00000
     18       4.3863      0.00000
     19       6.0946      0.00000
     20       6.1898      0.00000
     21       6.9356      0.00000
     22       7.1242      0.00000
     23       7.9249      0.00000
     24       8.1119      0.00000
     25       8.1136      0.00000
     26       8.6559      0.00000
     27       9.3845      0.00000
     28       9.5511      0.00000

 k-point     7 :       0.0000    0.0000    0.4000
  band No.  band energies     occupation 
      1     -18.9497      2.00000
      2     -18.7635      2.00000
      3     -18.4808      2.00000
      4     -18.4681      2.00000
      5      -8.6157      2.00000
      6      -8.6124      2.00000
      7      -8.3613      2.00000
      8      -8.1311      2.00000
      9      -7.8909      2.00000
     10      -7.8189      2.00000
     11      -7.6967      2.00000
     12      -7.5839      2.00000
     13      -3.5619      2.00000
     14      -3.5522      2.00000
     15      -3.0761      2.00000
     16      -2.9668      2.00000
     17       3.3097      0.00000
     18       4.3866      0.00000
     19       6.0948      0.00000
     20       6.1902      0.00000
     21       6.9356      0.00000
     22       7.1239      0.00000
     23       7.9245      0.00000
     24       8.1098      0.00000
     25       8.1134      0.00000
     26       8.6548      0.00000
     27       9.4064      0.00000
     28       9.5292      0.00000

 k-point     8 :       0.2000    0.2000    0.0000
  band No.  band energies     occupation 
      1     -19.0437      2.00000
      2     -18.6223      2.00000
      3     -18.5235      2.00000
      4     -18.4680      2.00000
      5      -8.6747      2.00000
      6      -8.6337      2.00000
      7      -8.5227      2.00000
      8      -7.9747      2.00000
      9      -7.8912      2.00000
     10      -7.7829      2.00000
     11      -7.7202      2.00000
     12      -7.4980      2.00000
     13      -3.4977      2.00000
     14      -3.4816      2.00000
     15      -3.1320      2.00000
     16      -2.8937      2.00000
     17       2.6665      0.00000
     18       5.0609      0.00000
     19       5.5110      0.00000
     20       5.8817      0.00000
     21       6.7439      0.00000
     22       7.0069      0.00000
     23       7.2887      0.00000
     24       8.1153      0.00000
     25       8.3508      0.00000
     26       9.2501      0.00000
     27       9.3417      0.00000
     28       9.8361      0.00000

 k-point     9 :       0.0000    0.2000    0.2000
  band No.  band energies     occupation 
      1     -19.0437      2.00000
      2     -18.6223      2.00000
      3     -18.5235      2.00000
      4     -18.4680      2.00000
      5      -8.6748      2.00000
      6      -8.6337      2.00000
      7      -8.5225      2.00000
      8      -7.9748      2.00000
      9      -7.8911      2.00000
     10      -7.7832      2.00000
     11      -7.7200      2.00000
     12      -7.4979      2.00000
     13      -3.4977      2.00000
     14      -3.4816      2.00000
     15      -3.1321      2.00000
     16      -2.8937      2.00000
     17       2.6666      0.00000
     18       5.0609      0.00000
     19       5.5112      0.00000
     20       5.8817      0.00000
     21       6.7438      0.00000
     22       7.0068      0.00000
     23       7.2889      0.00000
     24       8.1156      0.00000
     25       8.3510      0.00000
     26       9.2514      0.00000
     27       9.3532      0.00000
     28       9.9247      0.00000

 k-point    10 :       0.2000    0.0000    0.2000
  band No.  band energies     occupation 
      1     -19.0437      2.00000
      2     -18.6223      2.00000
      3     -18.5235      2.00000
      4     -18.4680      2.00000
      5      -8.6746      2.00000
      6      -8.6338      2.00000
      7      -8.5226      2.00000
      8      -7.9750      2.00000
      9      -7.8909      2.00000
     10      -7.7831      2.00000
     11      -7.7201      2.00000
     12      -7.4979      2.00000
[...]
     18       5.0405      0.00000
     19       5.2421      0.00000
     20       5.6737      0.00000
     21       6.9815      0.00000
     22       7.0933      0.00000
     23       7.5919      0.00000
     24       7.7305      0.00000
     25       8.2929      0.00000
     26       8.7096      0.00000
     27       9.0417      0.00000
     28       9.2403      0.00000

 k-point    53 :      -0.2000    0.4000    0.4000
  band No.  band energies     occupation 
      1     -18.7949      2.00000
      2     -18.7213      2.00000
      3     -18.5847      2.00000
      4     -18.5568      2.00000
      5      -8.7073      2.00000
      6      -8.6802      2.00000
      7      -8.5247      2.00000
      8      -8.4314      2.00000
      9      -7.7586      2.00000
     10      -7.6843      2.00000
     11      -7.5587      2.00000
     12      -7.4855      2.00000
     13      -3.5143      2.00000
     14      -3.4911      2.00000
     15      -3.0416      2.00000
     16      -3.0220      2.00000
     17       4.3212      0.00000
     18       5.0405      0.00000
     19       5.2421      0.00000
     20       5.6736      0.00000
     21       6.9815      0.00000
     22       7.0933      0.00000
     23       7.5918      0.00000
     24       7.7305      0.00000
     25       8.2932      0.00000
     26       8.7111      0.00000
     27       9.0445      0.00000
     28       9.2534      0.00000

 k-point    54 :      -0.4000   -0.4000    0.2000
  band No.  band energies     occupation 
      1     -18.7949      2.00000
      2     -18.7213      2.00000
      3     -18.5847      2.00000
      4     -18.5568      2.00000
      5      -8.7072      2.00000
      6      -8.6801      2.00000
      7      -8.5250      2.00000
      8      -8.4315      2.00000
      9      -7.7584      2.00000
     10      -7.6841      2.00000
     11      -7.5588      2.00000
     12      -7.4856      2.00000
     13      -3.5144      2.00000
     14      -3.4912      2.00000
     15      -3.0416      2.00000
     16      -3.0220      2.00000
     17       4.3212      0.00000
     18       5.0404      0.00000
     19       5.2420      0.00000
     20       5.6737      0.00000
     21       6.9815      0.00000
     22       7.0933      0.00000
     23       7.5918      0.00000
     24       7.7304      0.00000
     25       8.2932      0.00000
     26       8.7107      0.00000
     27       9.0417      0.00000
     28       9.2406      0.00000

 k-point    55 :      -0.2000   -0.4000    0.4000
  band No.  band energies     occupation 
      1     -18.7949      2.00000
      2     -18.7212      2.00000
      3     -18.5848      2.00000
      4     -18.5567      2.00000
      5      -8.7072      2.00000
      6      -8.6802      2.00000
      7      -8.5248      2.00000
      8      -8.4314      2.00000
      9      -7.7586      2.00000
     10      -7.6843      2.00000
     11      -7.5587      2.00000
     12      -7.4855      2.00000
     13      -3.5143      2.00000
     14      -3.4911      2.00000
     15      -3.0416      2.00000
     16      -3.0220      2.00000
     17       4.3212      0.00000
     18       5.0405      0.00000
     19       5.2420      0.00000
     20       5.6737      0.00000
     21       6.9815      0.00000
     22       7.0933      0.00000
     23       7.5918      0.00000
     24       7.7305      0.00000
     25       8.2930      0.00000
     26       8.7097      0.00000
     27       9.0456      0.00000
     28       9.2399      0.00000

 k-point    56 :      -0.4000   -0.2000    0.4000
  band No.  band energies     occupation 
      1     -18.7949      2.00000
      2     -18.7213      2.00000
      3     -18.5847      2.00000
      4     -18.5568      2.00000
      5      -8.7072      2.00000
      6      -8.6802      2.00000
      7      -8.5249      2.00000
      8      -8.4314      2.00000
      9      -7.7585      2.00000
     10      -7.6842      2.00000
     11      -7.5587      2.00000
     12      -7.4855      2.00000
     13      -3.5144      2.00000
     14      -3.4912      2.00000
     15      -3.0416      2.00000
     16      -3.0220      2.00000
     17       4.3212      0.00000
     18       5.0405      0.00000
     19       5.2421      0.00000
     20       5.6736      0.00000
     21       6.9814      0.00000
     22       7.0933      0.00000
     23       7.5919      0.00000
     24       7.7305      0.00000
     25       8.2932      0.00000
     26       8.7119      0.00000
     27       9.0477      0.00000
     28       9.2419      0.00000

 k-point    57 :       0.4000   -0.4000    0.2000
  band No.  band energies     occupation 
      1     -18.7949      2.00000
      2     -18.7213      2.00000
      3     -18.5847      2.00000
      4     -18.5568      2.00000
      5      -8.7072      2.00000
      6      -8.6801      2.00000
      7      -8.5250      2.00000
      8      -8.4315      2.00000
      9      -7.7584      2.00000
     10      -7.6841      2.00000
     11      -7.5588      2.00000
     12      -7.4856      2.00000
     13      -3.5144      2.00000
     14      -3.4912      2.00000
     15      -3.0416      2.00000
     16      -3.0220      2.00000
     17       4.3212      0.00000
     18       5.0404      0.00000
     19       5.2420      0.00000
     20       5.6737      0.00000
     21       6.9815      0.00000
     22       7.0933      0.00000
     23       7.5918      0.00000
     24       7.7305      0.00000
     25       8.2932      0.00000
     26       8.7101      0.00000
     27       9.0422      0.00000
     28       9.2412      0.00000

 k-point    58 :       0.4000   -0.2000    0.4000
  band No.  band energies     occupation 
      1     -18.7949      2.00000
      2     -18.7213      2.00000
      3     -18.5847      2.00000
      4     -18.5568      2.00000
      5      -8.7072      2.00000
      6      -8.6802      2.00000
      7      -8.5249      2.00000
      8      -8.4314      2.00000
      9      -7.7585      2.00000
     10      -7.6842      2.00000
     11      -7.5587      2.00000
     12      -7.4855      2.00000
     13      -3.5144      2.00000
     14      -3.4912      2.00000
     15      -3.0416      2.00000
     16      -3.0220      2.00000
     17       4.3212      0.00000
     18       5.0405      0.00000
     19       5.2421      0.00000
     20       5.6736      0.00000
     21       6.9814      0.00000
     22       7.0933      0.00000
     23       7.5919      0.00000
     24       7.7305      0.00000
     25       8.2931      0.00000
     26       8.7095      0.00000
     27       9.0415      0.00000
     28       9.2399      0.00000

 k-point    59 :       0.2000   -0.4000    0.4000
  band No.  band energies     occupation 
      1     -18.7949      2.00000
      2     -18.7212      2.00000
      3     -18.5848      2.00000
      4     -18.5567      2.00000
      5      -8.7072      2.00000
      6      -8.6802      2.00000
      7      -8.5248      2.00000
      8      -8.4314      2.00000
      9      -7.7586      2.00000
     10      -7.6843      2.00000
     11      -7.5587      2.00000
     12      -7.4855      2.00000
     13      -3.5143      2.00000
     14      -3.4911      2.00000
     15      -3.0416      2.00000
     16      -3.0221      2.00000
     17       4.3212      0.00000
     18       5.0405      0.00000
     19       5.2420      0.00000
     20       5.6737      0.00000
     21       6.9815      0.00000
     22       7.0934      0.00000
     23       7.5918      0.00000
     24       7.7305      0.00000
     25       8.2930      0.00000
     26       8.7098      0.00000
     27       9.0430      0.00000
     28       9.2409      0.00000

 k-point    60 :       0.4000    0.4000    0.4000
  band No.  band energies     occupation 
      1     -18.7342      2.00000
      2     -18.6919      2.00000
      3     -18.6225      2.00000
      4     -18.6001      2.00000
      5      -8.7647      2.00000
      6      -8.7620      2.00000
      7      -8.6756      2.00000
      8      -8.6297      2.00000
      9      -7.5890      2.00000
     10      -7.5166      2.00000
     11      -7.5036      2.00000
     12      -7.4321      2.00000
     13      -3.3811      2.00000
     14      -3.3642      2.00000
     15      -3.0832      2.00000
     16      -3.0811      2.00000
     17       4.5387      0.00000
     18       4.9546      0.00000
     19       5.0367      0.00000
     20       5.0686      0.00000
     21       7.1357      0.00000
     22       7.1695      0.00000
     23       7.5067      0.00000
     24       7.5773      0.00000
     25       8.6374      0.00000
     26       8.8778      0.00000
     27       9.0753      0.00000
     28       9.2781      0.00000

 k-point    61 :      -0.4000    0.4000    0.4000
  band No.  band energies     occupation 
      1     -18.7342      2.00000
      2     -18.6919      2.00000
      3     -18.6225      2.00000
      4     -18.6001      2.00000
      5      -8.7647      2.00000
      6      -8.7620      2.00000
      7      -8.6756      2.00000
      8      -8.6297      2.00000
      9      -7.5890      2.00000
     10      -7.5167      2.00000
     11      -7.5036      2.00000
     12      -7.4321      2.00000
     13      -3.3811      2.00000
     14      -3.3642      2.00000
     15      -3.0832      2.00000
     16      -3.0811      2.00000
     17       4.5387      0.00000
     18       4.9546      0.00000
     19       5.0367      0.00000
     20       5.0686      0.00000
     21       7.1357      0.00000
     22       7.1695      0.00000
     23       7.5067      0.00000
     24       7.5773      0.00000
     25       8.6374      0.00000
     26       8.8778      0.00000
     27       9.0752      0.00000
     28       9.2782      0.00000

 k-point    62 :      -0.4000   -0.4000    0.4000
  band No.  band energies     occupation 
      1     -18.7342      2.00000
      2     -18.6919      2.00000
      3     -18.6226      2.00000
      4     -18.6001      2.00000
      5      -8.7647      2.00000
      6      -8.7621      2.00000
      7      -8.6756      2.00000
      8      -8.6297      2.00000
      9      -7.5890      2.00000
     10      -7.5166      2.00000
     11      -7.5036      2.00000
     12      -7.4321      2.00000
     13      -3.3811      2.00000
     14      -3.3642      2.00000
     15      -3.0832      2.00000
     16      -3.0812      2.00000
     17       4.5387      0.00000
     18       4.9546      0.00000
     19       5.0367      0.00000
     20       5.0686      0.00000
     21       7.1356      0.00000
     22       7.1695      0.00000
     23       7.5066      0.00000
     24       7.5773      0.00000
     25       8.6375      0.00000
     26       8.8779      0.00000
     27       9.0751      0.00000
     28       9.2782      0.00000

 k-point    63 :       0.4000   -0.4000    0.4000
  band No.  band energies     occupation 
      1     -18.7342      2.00000
      2     -18.6919      2.00000
      3     -18.6226      2.00000
      4     -18.6001      2.00000
      5      -8.7647      2.00000
      6      -8.7621      2.00000
      7      -8.6756      2.00000
      8      -8.6297      2.00000
      9      -7.5890      2.00000
     10      -7.5166      2.00000
     11      -7.5036      2.00000
     12      -7.4321      2.00000
     13      -3.3811      2.00000
     14      -3.3642      2.00000
     15      -3.0832      2.00000
     16      -3.0812      2.00000
     17       4.5387      0.00000
     18       4.9546      0.00000
     19       5.0367      0.00000
     20       5.0686      0.00000
     21       7.1356      0.00000
     22       7.1695      0.00000
     23       7.5066      0.00000
     24       7.5774      0.00000
     25       8.6375      0.00000
     26       8.8779      0.00000
     27       9.0751      0.00000
     28       9.2784      0.00000


--------------------------------------------------------------------------------------------------------


 soft charge-density along one line, spin component           1
         0         1         2         3         4         5         6         7         8         9
 total charge-density along one line

 pseudopotential strength for first ion, spin component:           1
 19.901  27.868   0.028   0.028   0.028   0.042   0.042   0.042
 27.868  39.025   0.039   0.039   0.039   0.058   0.058   0.058
  0.028   0.039  -5.878   0.001   0.001  -8.817   0.001   0.001
  0.028   0.039   0.001  -5.877   0.001   0.001  -8.817   0.001
  0.028   0.039   0.001   0.001  -5.878   0.001   0.001  -8.817
  0.042   0.058  -8.817   0.001   0.001 -13.206   0.002   0.002
  0.042   0.058   0.001  -8.817   0.001   0.002 -13.205   0.002
  0.042   0.058   0.001   0.001  -8.817   0.002   0.002 -13.206
 total augmentation occupancy for first ion, spin component:           1
 12.664  -6.053   2.218   2.217   2.217  -1.069  -1.069  -1.068
 -6.053   3.013  -1.443  -1.443  -1.443   0.624   0.624   0.624
  2.218  -1.443   7.618  -0.963  -0.964  -3.042   0.559   0.559
  2.217  -1.443  -0.963   7.619  -0.964   0.559  -3.043   0.559
  2.217  -1.443  -0.964  -0.964   7.619   0.559   0.559  -3.043
 -1.069   0.624  -3.042   0.559   0.559   1.237  -0.276  -0.277
 -1.069   0.624   0.559  -3.043   0.559  -0.276   1.238  -0.277
 -1.068   0.624   0.559   0.559  -3.043  -0.277  -0.277   1.238


------------------------ aborting loop because EDIFF is reached ----------------------------------------


    FORLOC:  cpu time      0.0045: real time      0.0045
    FORNL :  cpu time      0.0941: real time      0.0945
    FORCOR:  cpu time      0.3457: real time      0.3463
    OFIELD:  cpu time      0.0015: real time      0.0015

 VOLUME and BASIS-vectors are now :
 -----------------------------------------------------------------------------
  energy-cutoff  :     1000.00
  volume of cell :      135.05
      direct lattice vectors                 reciprocal lattice vectors
     5.130500000  0.000000000  0.000000000     0.194912777  0.000000000  0.000000000
     0.000000000  5.130500000  0.000000000     0.000000000  0.194912777  0.000000000
     0.000000000  0.000000000  5.130500000     0.000000000  0.000000000  0.194912777

  length of vectors
     5.130500000  5.130500000  5.130500000     0.194912777  0.194912777  0.194912777


 FORCES acting on ions:
    Electron-Ion                     Ewald-Force                    Non-Local-Force
 -----------------------------------------------------------------------------------------------
   0.138E+02 0.138E+02 0.138E+02   -.291E+02 -.292E+02 -.291E+02   0.155E+02 0.155E+02 0.155E+02
   0.138E+02 -.138E+02 -.138E+02   -.291E+02 0.292E+02 0.291E+02   0.155E+02 -.155E+02 -.155E+02
   -.138E+02 0.138E+02 -.138E+02   0.291E+02 -.292E+02 0.291E+02   -.155E+02 0.155E+02 -.155E+02
   -.138E+02 -.138E+02 0.138E+02   0.291E+02 0.292E+02 -.291E+02   -.155E+02 -.155E+02 0.155E+02
   -.437E+02 -.202E+02 0.262E+02   0.491E+02 0.225E+02 -.297E+02   -.568E+01 -.238E+01 0.373E+01
   -.202E+02 0.261E+02 -.437E+02   0.225E+02 -.297E+02 0.491E+02   -.238E+01 0.373E+01 -.568E+01
   0.262E+02 -.437E+02 -.202E+02   -.297E+02 0.491E+02 0.225E+02   0.373E+01 -.568E+01 -.238E+01
   -.437E+02 0.202E+02 -.262E+02   0.491E+02 -.225E+02 0.297E+02   -.568E+01 0.238E+01 -.373E+01
   -.202E+02 -.261E+02 0.437E+02   0.225E+02 0.297E+02 -.491E+02   -.238E+01 -.373E+01 0.568E+01
   0.262E+02 0.437E+02 0.202E+02   -.297E+02 -.491E+02 -.225E+02   0.373E+01 0.568E+01 0.238E+01
   0.202E+02 0.261E+02 0.437E+02   -.225E+02 -.297E+02 -.491E+02   0.238E+01 0.373E+01 0.568E+01
   -.262E+02 -.437E+02 0.202E+02   0.297E+02 0.491E+02 -.225E+02   -.373E+01 -.568E+01 0.238E+01
   -.262E+02 0.437E+02 -.202E+02   0.297E+02 -.491E+02 0.225E+02   -.373E+01 0.568E+01 -.238E+01
   0.437E+02 0.202E+02 0.262E+02   -.491E+02 -.225E+02 -.297E+02   0.568E+01 0.238E+01 0.373E+01
   0.202E+02 -.261E+02 -.437E+02   -.225E+02 0.297E+02 0.491E+02   0.238E+01 -.373E+01 -.568E+01
   0.437E+02 -.202E+02 -.261E+02   -.491E+02 0.225E+02 0.297E+02   0.568E+01 -.238E+01 -.373E+01
 -----------------------------------------------------------------------------------------------
   0.377E-02 0.103E-03 0.521E-04   0.284E-13 -.355E-14 0.320E-13   -.357E-02 -.141E-03 -.114E-04


 POSITION                                       TOTAL-FORCE (eV/Angst)
 -----------------------------------------------------------------------------------
      1.04471      1.04468      1.04473         0.159620      0.156582      0.159970
      3.60996      1.52057      4.08578         0.159647     -0.156512     -0.160050
      4.08581      3.60993      1.52052        -0.160756      0.155982     -0.159175
      1.52056      4.08583      3.60998        -0.160599     -0.156160      0.159174
      1.86198      1.39632      0.53263        -0.247829     -0.105517      0.170170
      1.39638      0.53260      1.86208        -0.106262      0.171124     -0.249265
      0.53257      1.86191      1.39634         0.169852     -0.246753     -0.105434
      4.42723      1.16894      4.59787        -0.247783      0.105492     -0.170146
      3.96164      2.03265      3.26842        -0.106292     -0.171165      0.249341
      3.09782      0.70334      3.73416         0.169845      0.246739      0.105434
      3.73412      3.09786      0.70317         0.106488      0.171113      0.249292
      4.59793      4.42716      1.16892        -0.169209     -0.245902      0.105043
      2.03269      3.26859      3.96158        -0.169290      0.246044     -0.105106
      0.70327      3.73419      3.09788         0.248037      0.105695      0.170559
      1.16888      4.59790      4.42733         0.106444     -0.171059     -0.249225
      3.26852      3.96157      2.03262         0.248087     -0.105703     -0.170580
 -----------------------------------------------------------------------------------
    total drift:                                0.000196     -0.000038      0.000041


--------------------------------------------------------------------------------------------------------



  FREE ENERGIE OF THE ION-ELECTRON SYSTEM (eV)
  ---------------------------------------------------
  free  energy   TOTEN  =       -84.45994178 eV

  energy  without entropy=      -84.45994178  energy(sigma->0) =      -84.45994178



--------------------------------------------------------------------------------------------------------


    POTLOK:  cpu time      0.3507: real time      0.3508


--------------------------------------------------------------------------------------------------------


 stress matrix after NEB project (eV)
      0.00000      0.00000      0.00000
      0.00000      0.00000      0.00000
      0.00000      0.00000      0.00000
  FORCES: max atom, RMS     0.320572    0.308405
  FORCE total and by dimension    1.233619    0.249341
  Stress total and by dimension    0.000000    0.000000
     LOOP+:  cpu time     41.9759: real time     42.3207
    4ORBIT:  cpu time      0.0000: real time      0.0000

 total amount of memory used by VASP MPI-rank0    41619. kBytes
=======================================================================

   base      :      30000. kBytes
   nonl-proj :       2728. kBytes
   fftplans  :        601. kBytes
   grid      :       1177. kBytes
   one-center:          3. kBytes
   wavefun   :       7110. kBytes

  
  
 General timing and accounting informations for this job:
 ========================================================
  
                  Total CPU time used (sec):       49.091
                            User time (sec):       47.234
                          System time (sec):        1.857
                         Elapsed time (sec):       52.711
  
                   Maximum memory used (kb):      197024.
                   Average memory used (kb):          N/A
  
                          Minor page faults:        21335
                          Major page faults:          480
                 Voluntary context switches:         3071
