 vasp.6.4.1 05Apr23 (build Jun  6 2023 14:36:51) complex                         
 executed on        HPECrayEX_GCC date 2024.08.20  14:29:20
 running  256 mpi-ranks, with    1 threads/rank, on    2 nodes
 distrk:  each k-point on  128 cores,    2 groups
 distr:  one band on NCORE=  32 cores,    4 groups


--------------------------------------------------------------------------------------------------------


 INCAR:
   ALGO = Conjugate
   KPAR = 2
   NCORE = 32
   ISMEAR = 0
   SIGMA = 0.01
   PREC = Accurate
   EDIFF = 1E-7
   ENCUT = 1000
   ISIF = 0
   GGA = RE
   IVDW = 11
   LWAVE = .FALSE.
   LCHARGE = .FALSE.
   SYMPREC = 1E-7
   LWAVE = .FALSE.
   LCHARGE = .FALSE.

 POTCAR:    PAW_PBE N_h 06Feb2004                 
 POTCAR:    PAW_PBE H_h 06Feb2004                 
 POTCAR:    PAW_PBE N_h 06Feb2004                 
   VRHFIN =N: s2p3                                                                                  
   LEXCH  = PE                                                                                      
   EATOM  =   264.5486 eV,   19.4438 Ry                                                             
                                                                                                    
   TITEL  = PAW_PBE N_h 06Feb2004                                                                   
   LULTRA =        F    use ultrasoft PP ?                                                          
   IUNSCR =        1    unscreen: 0-lin 1-nonlin 2-no                                               
   RPACOR =    0.800    partial core radius                                                         
   POMASS =   14.001; ZVAL   =    5.000    mass and valenz                                          
   RCORE  =    1.100    outmost cutoff radius                                                       
   RWIGS  =    1.480; RWIGS  =    0.783    wigner-seitz radius (au A)                               
   ENMAX  =  700.000; ENMIN  =  500.000 eV                                                          
   ICORE  =        2    local potential                                                             
   LCOR   =        T    correct aug charges                                                         
   LPAW   =        T    paw PP                                                                      
   EAUG   =  904.640                                                                                
   DEXC   =    0.000                                                                                
   RMAX   =    1.127    core radius for proj-oper                                                   
   RAUG   =    1.300    factor for augmentation sphere                                              
   RDEP   =    1.115    radius for radial grids                                                     
   RDEPT  =    1.106    core radius for aug-charge                                                  
                                                                                                    
   Atomic configuration                                                                             
    4 entries                                                                                       
     n  l   j            E        occ.                                                              
     1  0  0.50      -384.7179   2.0000                                                             
     2  0  0.50       -18.5828   2.0000                                                             
     2  1  0.50        -7.0898   3.0000                                                             
     3  2  1.50        -6.8029   0.0000                                                             
   Description                                                                                      
     l       E           TYP  RCUT    TYP  RCUT                                                     
     0    -18.5828117     23  1.100                                                                 
     0    -15.0750597     23  1.100                                                                 
     1     -7.0897851     23  1.100                                                                 
     1     -1.9663412     23  1.100                                                                 
     2     -6.8029130      7  1.100                                                                 
  local pseudopotential read in
  partial core-charges read in
  partial kinetic energy density read in
  kinetic energy density of atom read in
  atomic valenz-charges read in
  non local Contribution for L=           0  read in
    real space projection operators read in
  non local Contribution for L=           0  read in
    real space projection operators read in
  non local Contribution for L=           1  read in
    real space projection operators read in
  non local Contribution for L=           1  read in
    real space projection operators read in
    PAW grid and wavefunctions read in

   number of l-projection  operators is LMAX  =           4
   number of lm-projection operators is LMMAX =           8

 POTCAR:    PAW_PBE H_h 06Feb2004                 
   VRHFIN =H: ultrasoft test                                                                        
   LEXCH  = PE                                                                                      
   EATOM  =    12.4884 eV,    0.9179 Ry                                                             
                                                                                                    
   TITEL  = PAW_PBE H_h 06Feb2004                                                                   
   LULTRA =        F    use ultrasoft PP ?                                                          
   IUNSCR =        0    unscreen: 0-lin 1-nonlin 2-no                                               
   RPACOR =    0.000    partial core radius                                                         
   POMASS =    1.000; ZVAL   =    1.000    mass and valenz                                          
   RCORE  =    0.800    outmost cutoff radius                                                       
   RWIGS  =    0.700; RWIGS  =    0.370    wigner-seitz radius (au A)                               
   ENMAX  =  700.000; ENMIN  =  350.000 eV                                                          
   RCLOC  =    0.701    cutoff for local pot                                                        
   LCOR   =        T    correct aug charges                                                         
   LPAW   =        T    paw PP                                                                      
   EAUG   = 1000.000                                                                                
   RMAX   =    0.819    core radius for proj-oper                                                   
   RAUG   =    1.000    factor for augmentation sphere                                              
   RDEP   =    0.817    radius for radial grids                                                     
   RDEPT  =    0.817    core radius for aug-charge                                                  
                                                                                                    
   Atomic configuration                                                                             
    2 entries                                                                                       
     n  l   j            E        occ.                                                              
     1  0  0.50        -6.4927   1.0000                                                             
     2  1  0.50        -3.4015   0.0000                                                             
   Description                                                                                      
     l       E           TYP  RCUT    TYP  RCUT                                                     
     0     -6.4927493     23  0.800                                                                 
     0      6.8029130     23  0.800                                                                 
     1     -6.8029130     23  0.800                                                                 
  local pseudopotential read in
  atomic valenz-charges read in
  non local Contribution for L=           0  read in
    real space projection operators read in
  non local Contribution for L=           0  read in
    real space projection operators read in
  non local Contribution for L=           1  read in
    real space projection operators read in
    PAW grid and wavefunctions read in

   number of l-projection  operators is LMAX  =           3
   number of lm-projection operators is LMMAX =           5

 -----------------------------------------------------------------------------
|                                                                             |
|               ----> ADVICE to this user running VASP <----                  |
|                                                                             |
|     You enforced a specific xc type in the INCAR file but a different       |
|     type was found in the POTCAR file.                                      |
|     I HOPE YOU KNOW WHAT YOU ARE DOING!                                     |
|                                                                             |
 -----------------------------------------------------------------------------

  PAW_PBE N_h 06Feb2004                 :
 energy of atom  1       EATOM= -264.5486
 kinetic energy error for atom=    0.0081 (will be added to EATOM!!)
  PAW_PBE H_h 06Feb2004                 :
 energy of atom  2       EATOM=  -12.4884
 kinetic energy error for atom=    0.0006 (will be added to EATOM!!)


 POSCAR:  N  H
  positions in cartesian coordinates
  No initial velocities read in
 exchange correlation table for  LEXCH =       40
   RHO(1)=    0.500       N(1)  =     2000
   RHO(2)=  100.500       N(2)  =     4000

 VTST: version 4.1, (05/19/21)

 CHAIN: initializing optimizer
 
 OPT: Using VASP Dynamics algorithm
 CHAIN: Read ICHAIN            0

 POSCAR:  N  H
  positions in cartesian coordinates
  No initial velocities read in



--------------------------------------------------------------------------------------------------------


 ion  position               nearest neighbor table
   1  0.204  0.204  0.204-   7 1.03   5 1.03   6 1.03
   2  0.704  0.296  0.796-  10 1.03   8 1.03   9 1.03
   3  0.796  0.704  0.296-  12 1.03  16 1.03  11 1.03
   4  0.296  0.796  0.704-  13 1.03  14 1.03  15 1.03
   5  0.363  0.272  0.104-   1 1.03
   6  0.272  0.104  0.363-   1 1.03
   7  0.104  0.363  0.272-   1 1.03
   8  0.863  0.228  0.896-   2 1.03
   9  0.772  0.396  0.637-   2 1.03
  10  0.604  0.137  0.728-   2 1.03
  11  0.728  0.604  0.137-   3 1.03
  12  0.896  0.863  0.228-   3 1.03
  13  0.396  0.637  0.772-   4 1.03
  14  0.137  0.728  0.604-   4 1.03
  15  0.228  0.896  0.863-   4 1.03
  16  0.637  0.772  0.396-   3 1.03

  LATTYP: Found a simple cubic cell.
 ALAT       =     5.1305000000
  
  Lattice vectors:
  
 A1 = (   5.1305000000,   0.0000000000,   0.0000000000)
 A2 = (   0.0000000000,   5.1305000000,   0.0000000000)
 A3 = (   0.0000000000,   0.0000000000,   5.1305000000)


Analysis of symmetry for initial positions (statically):
=====================================================================
 Subroutine PRICEL returns:
 Original cell was already a primitive cell.
 

 Routine SETGRP: Setting up the symmetry group for a 
 simple cubic supercell.


 Subroutine GETGRP returns: Found  1 space group operations
 (whereof  1 operations were pure point group operations)
 out of a pool of 48 trial point group operations.


The static configuration has the point symmetry C_1 .


Analysis of symmetry for dynamics (positions and initial velocities):
=====================================================================
 Subroutine PRICEL returns:
 Original cell was already a primitive cell.
 

 Routine SETGRP: Setting up the symmetry group for a 
 simple cubic supercell.


 Subroutine GETGRP returns: Found  1 space group operations
 (whereof  1 operations were pure point group operations)
 out of a pool of 48 trial point group operations.


The dynamic configuration has the point symmetry C_1 .


 Subroutine INISYM returns: Found  1 space group operations
 (whereof  1 operations are pure point group operations),
 and found     1 'primitive' translations


----------------------------------------------------------------------------------------

                                     Primitive cell                                     

  volume of cell :     135.0452

  direct lattice vectors                    reciprocal lattice vectors
     5.130500000  0.000000000  0.000000000     0.194912777  0.000000000  0.000000000
     0.000000000  5.130500000  0.000000000     0.000000000  0.194912777  0.000000000
     0.000000000  0.000000000  5.130500000     0.000000000  0.000000000  0.194912777

  length of vectors
     5.130500000  5.130500000  5.130500000     0.194912777  0.194912777  0.194912777

  position of ions in fractional coordinates (direct lattice)
     0.203627113  0.203621431  0.203630403
     0.703627029  0.296379224  0.796369782
     0.796376204  0.703621086  0.296368680
     0.296376360  0.796379870  0.703631030
     0.362924549  0.272160065  0.103816846
     0.272173110  0.103811414  0.362943826
     0.103803989  0.362910930  0.272163643
     0.862924359  0.227840758  0.896183154
     0.772173318  0.396189393  0.637055963
     0.603804049  0.137089872  0.727836227
     0.727828470  0.603811815  0.137056818
     0.896196011  0.862910103  0.227837673
     0.396196503  0.637090091  0.772162233
     0.137076124  0.727840763  0.603815983
     0.227828970  0.896188586  0.862942724
     0.637075505  0.772159890  0.396183698

  ion indices of the primitive-cell ions
   primitive index   ion index
                 1           1
                 2           2
                 3           3
                 4           4
                 5           5
                 6           6
                 7           7
                 8           8
                 9           9
                10          10
                11          11
                12          12
                13          13
                14          14
                15          15
                16          16

----------------------------------------------------------------------------------------



 KPOINTS: auto                                    

Automatic generation of k-mesh.
 Grid dimensions read from file:
 generate k-points for:    5    5    5

 Generating k-lattice:

  Cartesian coordinates                     Fractional coordinates (reciprocal lattice)
     0.038982555  0.000000000  0.000000000     0.200000000  0.000000000  0.000000000
     0.000000000  0.038982555  0.000000000     0.000000000  0.200000000  0.000000000
     0.000000000  0.000000000  0.038982555     0.000000000  0.000000000  0.200000000

  Length of vectors
     0.038982555  0.038982555  0.038982555

  Shift w.r.t. Gamma in fractional coordinates (k-lattice)
     0.000000000  0.000000000  0.000000000

 
 Subroutine IBZKPT returns following result:
 ===========================================
 
 Found     63 irreducible k-points:
 
 Following reciprocal coordinates:
            Coordinates               Weight
  0.000000  0.000000  0.000000      1.000000
  0.200000  0.000000  0.000000      2.000000
  0.000000  0.200000  0.000000      2.000000
  0.000000  0.000000  0.200000      2.000000
  0.400000  0.000000  0.000000      2.000000
  0.000000  0.400000  0.000000      2.000000
  0.000000  0.000000  0.400000      2.000000
  0.200000  0.200000  0.000000      2.000000
  0.000000  0.200000  0.200000      2.000000
  0.200000  0.000000  0.200000      2.000000
 -0.200000  0.200000  0.000000      2.000000
 -0.200000  0.000000  0.200000      2.000000
  0.000000 -0.200000  0.200000      2.000000
  0.400000  0.200000  0.000000      2.000000
  0.000000  0.400000  0.200000      2.000000
  0.200000  0.000000  0.400000      2.000000
 -0.200000  0.400000  0.000000      2.000000
 -0.400000  0.000000  0.200000      2.000000
  0.000000  0.200000  0.400000      2.000000
  0.000000 -0.400000  0.200000      2.000000
 -0.200000  0.000000  0.400000      2.000000
  0.400000  0.000000  0.200000      2.000000
  0.000000 -0.200000  0.400000      2.000000
  0.400000 -0.200000  0.000000      2.000000
  0.200000  0.400000  0.000000      2.000000
  0.400000  0.400000  0.000000      2.000000
  0.000000  0.400000  0.400000      2.000000
  0.400000  0.000000  0.400000      2.000000
 -0.400000  0.400000  0.000000      2.000000
 -0.400000  0.000000  0.400000      2.000000
  0.000000 -0.400000  0.400000      2.000000
  0.200000  0.200000  0.200000      2.000000
 -0.200000  0.200000  0.200000      2.000000
 -0.200000 -0.200000  0.200000      2.000000
  0.200000 -0.200000  0.200000      2.000000
  0.400000  0.200000  0.200000      2.000000
  0.200000  0.400000  0.200000      2.000000
  0.200000  0.200000  0.400000      2.000000
 -0.200000  0.400000  0.200000      2.000000
 -0.400000  0.200000  0.200000      2.000000
 -0.200000  0.200000  0.400000      2.000000
 -0.400000 -0.200000  0.200000      2.000000
 -0.200000 -0.400000  0.200000      2.000000
 -0.200000 -0.200000  0.400000      2.000000
  0.200000 -0.400000  0.200000      2.000000
  0.400000 -0.200000  0.200000      2.000000
  0.200000 -0.200000  0.400000      2.000000
  0.400000  0.400000  0.200000      2.000000
  0.200000  0.400000  0.400000      2.000000
  0.400000  0.200000  0.400000      2.000000
 -0.400000  0.400000  0.200000      2.000000
 -0.400000  0.200000  0.400000      2.000000
 -0.200000  0.400000  0.400000      2.000000
 -0.400000 -0.400000  0.200000      2.000000
 -0.200000 -0.400000  0.400000      2.000000
 -0.400000 -0.200000  0.400000      2.000000
  0.400000 -0.400000  0.200000      2.000000
  0.400000 -0.200000  0.400000      2.000000
  0.200000 -0.400000  0.400000      2.000000
  0.400000  0.400000  0.400000      2.000000
 -0.400000  0.400000  0.400000      2.000000
 -0.400000 -0.400000  0.400000      2.000000
  0.400000 -0.400000  0.400000      2.000000
 
 Following cartesian coordinates:
            Coordinates               Weight
  0.000000  0.000000  0.000000      1.000000
  0.038983  0.000000  0.000000      2.000000
  0.000000  0.038983  0.000000      2.000000
  0.000000  0.000000  0.038983      2.000000
  0.077965  0.000000  0.000000      2.000000
  0.000000  0.077965  0.000000      2.000000
  0.000000  0.000000  0.077965      2.000000
  0.038983  0.038983  0.000000      2.000000
  0.000000  0.038983  0.038983      2.000000
  0.038983  0.000000  0.038983      2.000000
 -0.038983  0.038983  0.000000      2.000000
 -0.038983  0.000000  0.038983      2.000000
  0.000000 -0.038983  0.038983      2.000000
  0.077965  0.038983  0.000000      2.000000
  0.000000  0.077965  0.038983      2.000000
  0.038983  0.000000  0.077965      2.000000
 -0.038983  0.077965  0.000000      2.000000
 -0.077965  0.000000  0.038983      2.000000
  0.000000  0.038983  0.077965      2.000000
  0.000000 -0.077965  0.038983      2.000000
 -0.038983  0.000000  0.077965      2.000000
  0.077965  0.000000  0.038983      2.000000
  0.000000 -0.038983  0.077965      2.000000
  0.077965 -0.038983  0.000000      2.000000
  0.038983  0.077965  0.000000      2.000000
  0.077965  0.077965  0.000000      2.000000
  0.000000  0.077965  0.077965      2.000000
  0.077965  0.000000  0.077965      2.000000
 -0.077965  0.077965  0.000000      2.000000
 -0.077965  0.000000  0.077965      2.000000
  0.000000 -0.077965  0.077965      2.000000
  0.038983  0.038983  0.038983      2.000000
 -0.038983  0.038983  0.038983      2.000000
 -0.038983 -0.038983  0.038983      2.000000
  0.038983 -0.038983  0.038983      2.000000
  0.077965  0.038983  0.038983      2.000000
  0.038983  0.077965  0.038983      2.000000
  0.038983  0.038983  0.077965      2.000000
 -0.038983  0.077965  0.038983      2.000000
 -0.077965  0.038983  0.038983      2.000000
 -0.038983  0.038983  0.077965      2.000000
 -0.077965 -0.038983  0.038983      2.000000
 -0.038983 -0.077965  0.038983      2.000000
 -0.038983 -0.038983  0.077965      2.000000
  0.038983 -0.077965  0.038983      2.000000
  0.077965 -0.038983  0.038983      2.000000
  0.038983 -0.038983  0.077965      2.000000
  0.077965  0.077965  0.038983      2.000000
  0.038983  0.077965  0.077965      2.000000
  0.077965  0.038983  0.077965      2.000000
 -0.077965  0.077965  0.038983      2.000000
 -0.077965  0.038983  0.077965      2.000000
 -0.038983  0.077965  0.077965      2.000000
 -0.077965 -0.077965  0.038983      2.000000
 -0.038983 -0.077965  0.077965      2.000000
 -0.077965 -0.038983  0.077965      2.000000
  0.077965 -0.077965  0.038983      2.000000
  0.077965 -0.038983  0.077965      2.000000
  0.038983 -0.077965  0.077965      2.000000
  0.077965  0.077965  0.077965      2.000000
 -0.077965  0.077965  0.077965      2.000000
 -0.077965 -0.077965  0.077965      2.000000
  0.077965 -0.077965  0.077965      2.000000
 


--------------------------------------------------------------------------------------------------------




 Dimension of arrays:
   k-points           NKPTS =     63   k-points in BZ     NKDIM =     63   number of bands    NBANDS=     28
   number of dos      NEDOS =    301   number of ions     NIONS =     16
   non local maximal  LDIM  =      4   non local SUM 2l+1 LMDIM =      8
   total plane-waves  NPLWV = 157464
   max r-space proj   IRMAX =      1   max aug-charges    IRDMAX=   8480
   dimension x,y,z NGX =    54 NGY =   54 NGZ =   54
   dimension x,y,z NGXF=   108 NGYF=  108 NGZF=  108
   support grid    NGXF=   108 NGYF=  108 NGZF=  108
   ions per type =               4  12
   NGX,Y,Z   is equivalent  to a cutoff of  17.50, 17.50, 17.50 a.u.
   NGXF,Y,Z  is equivalent  to a cutoff of  35.00, 35.00, 35.00 a.u.

 SYSTEM =  unknown system                          
 POSCAR =   N  H                                   

 Startparameter for this run:
   NWRITE =      2    write-flag & timer
   PREC   = accura    normal or accurate (medium, high low for compatibility)
   ISTART =      0    job   : 0-new  1-cont  2-samecut
   ICHARG =      2    charge: 1-file 2-atom 10-const
   ISPIN  =      1    spin polarized calculation?
   LNONCOLLINEAR =      F non collinear calculations
   LSORBIT =      F    spin-orbit coupling
   INIWAV =      1    electr: 0-lowe 1-rand  2-diag
   LASPH  =      F    aspherical Exc in radial PAW
 Electronic Relaxation 1
   ENCUT  = 1000.0 eV  73.50 Ry    8.57 a.u.  13.23 13.23 13.23*2*pi/ulx,y,z
   ENINI  = 1000.0     initial cutoff
   ENAUG  = 1000.0 eV  augmentation charge cutoff
   NELM   =     60;   NELMIN=  2; NELMDL= -5     # of ELM steps 
   EDIFF  = 0.1E-06   stopping-criterion for ELM
   LREAL  =      F    real-space projection
   NLSPLINE    = F    spline interpolate recip. space projectors
   LCOMPAT=      F    compatible to vasp.4.4
   GGA_COMPAT  = T    GGA compatible to vasp.4.4-vasp.4.6
   LMAXPAW     = -100 max onsite density
   LMAXMIX     =    2 max onsite mixed and CHGCAR
   VOSKOWN=      0    Vosko Wilk Nusair interpolation
   ROPT   =    0.00000   0.00000
 Ionic relaxation
   EDIFFG = 0.1E-05   stopping-criterion for IOM
   NSW    =      0    number of steps for IOM
   NBLOCK =      1;   KBLOCK =      1    inner block; outer block 
   IBRION =     -1    ionic relax: 0-MD 1-quasi-New 2-CG
   NFREE  =      0    steps in history (QN), initial steepest desc. (CG)
   ISIF   =      0    stress and relaxation
   IWAVPR =     10    prediction:  0-non 1-charg 2-wave 3-comb
   ISYM   =      2    0-nonsym 1-usesym 2-fastsym
   LCORR  =      T    Harris-Foulkes like correction to forces

   POTIM  = 0.5000    time-step for ionic-motion
   TEIN   =    0.0    initial temperature
   TEBEG  =    0.0;   TEEND  =   0.0 temperature during run
   SMASS  =  -3.00    Nose mass-parameter (am)
   estimated Nose-frequenzy (Omega)   =  0.10E-29 period in steps = 0.13E+47 mass=  -0.602E-27a.u.
   SCALEE = 1.0000    scale energy and forces
   NPACO  =    256;   APACO  = 10.0  distance and # of slots for P.C.
   PSTRESS=    0.0 pullay stress

  Mass of Ions in am
   POMASS =  14.00  1.00
  Ionic Valenz
   ZVAL   =   5.00  1.00
  Atomic Wigner-Seitz radii
   RWIGS  =  -1.00 -1.00
  virtual crystal weights 
   VCA    =   1.00  1.00
   NELECT =      32.0000    total number of electrons
   NUPDOWN=      -1.0000    fix difference up-down

 DOS related values:
   EMIN   =  10.00;   EMAX   =-10.00  energy-range for DOS
   EFERMI =   0.00;   METHOD = LEGACY      
   ISMEAR =     0;   SIGMA  =   0.01  broadening in eV -4-tet -1-fermi 0-gaus

 Electronic relaxation 2 (details)
   IALGO  =     58    algorithm
   LDIAG  =      T    sub-space diagonalisation (order eigenvalues)
   LSUBROT=      F    optimize rotation matrix (better conditioning)
   TURBO    =      0    0=normal 1=particle mesh
   IRESTART =      0    0=no restart 2=restart with 2 vectors
   NREBOOT  =      0    no. of reboots
   NMIN     =      0    reboot dimension
   EREF     =   0.00    reference energy to select bands
   IMIX   =      4    mixing-type and parameters
     AMIX     =   0.40;   BMIX     =  1.00
     AMIX_MAG =   1.60;   BMIX_MAG =  1.00
     AMIN     =   0.10
     WC   =   100.;   INIMIX=   1;  MIXPRE=   1;  MAXMIX= -45

 Intra band minimization:
   WEIMIN = 0.0000     energy-eigenvalue tresh-hold
   EBREAK =  0.89E-09  absolut break condition
   DEPER  =   0.30     relativ break condition  

   TIME   =   0.40     timestep for ELM

  volume/ion in A,a.u.               =       8.44        56.96
  Fermi-wavevector in a.u.,A,eV,Ry     =   1.013052  1.914391 13.963314  1.026275
  Thomas-Fermi vector in A             =   2.146198

 Write flags
   LWAVE        =      F    write WAVECAR
   LDOWNSAMPLE  =      F    k-point downsampling of WAVECAR
   LCHARG       =      T    write CHGCAR
   LVTOT        =      F    write LOCPOT, total local potential
   LVHAR        =      F    write LOCPOT, Hartree potential only
   LELF         =      F    write electronic localiz. function (ELF)
   LORBIT       =      0    0 simple, 1 ext, 2 COOP (PROOUT), +10 PAW based schemes


 Dipole corrections
   LMONO  =      F    monopole corrections only (constant potential shift)
   LDIPOL =      F    correct potential (dipole corrections)
   IDIPOL =      0    1-x, 2-y, 3-z, 4-all directions 
   EPSILON=  1.0000000 bulk dielectric constant

 Exchange correlation treatment:
   GGA     =    RE    GGA type
   LEXCH   =    40    internal setting for exchange type
   LIBXC   =     F    Libxc                    
   VOSKOWN =     0    Vosko Wilk Nusair interpolation
   LHFCALC =     F    Hartree Fock is set to
   LHFONE  =     F    Hartree Fock one center treatment
   AEXX    =    0.0000 exact exchange contribution

 Linear response parameters
   LEPSILON=     F    determine dielectric tensor
   LRPA    =     F    only Hartree local field effects (RPA)
   LNABLA  =     F    use nabla operator in PAW spheres
   LVEL    =     F    velocity operator in full k-point grid
   CSHIFT  =0.1000    complex shift for real part using Kramers Kronig
   OMEGAMAX=  -1.0    maximum frequency
   DEG_THRESHOLD= 0.2000000E-02 threshold for treating states as degnerate
   RTIME   =   -0.100 relaxation time in fs
  (WPLASMAI=    0.000 imaginary part of plasma frequency in eV, 0.658/RTIME)
   DFIELD  = 0.0000000 0.0000000 0.0000000 field for delta impulse in time

  Optional k-point grid parameters
   LKPOINTS_OPT  =     F    use optional k-point grid
   KPOINTS_OPT_MODE=     1    mode for optional k-point grid

 Orbital magnetization related:
   ORBITALMAG=     F  switch on orbital magnetization
   LCHIMAG   =     F  perturbation theory with respect to B field
   DQ        =  0.001000  dq finite difference perturbation B field
   LLRAUG    =     F  two centre corrections for induced B field
   LBONE     =     F  B-component reconstruction in AE one-centre
   LVGVCALC  =     T  calculate vGv susceptibility
   LVGVAPPL  =     F  apply vGv susceptibility instead of pGv for G=0

 Random number generation:
   RANDOM_GENERATOR = DEFAULT
   PCG_SEED         = not used


--------------------------------------------------------------------------------------------------------


 Static calculation
 charge density and potential will be updated during run
 non-spin polarized calculation
 Conjugate gradient for all bands (Freysoldt, et al. PRB 79, 241103 (2009))
 preconditioned conjugated gradient                                        
 perform sub-space diagonalisation
    before iterative eigenvector-optimisation
 modified Broyden-mixing scheme, WC =      100.0
 initial mixing is a Kerker type mixing with AMIX =  0.4000 and BMIX =      1.0000
 Hartree-type preconditioning will be used
 using additional bands           12
 reciprocal scheme for non local part
 use partial core corrections
 no Harris-corrections to forces 
 use gradient corrections 
 use of overlap-Matrix (Vanderbilt PP)
 Gauss-broadening in eV      SIGMA  =   0.01


--------------------------------------------------------------------------------------------------------


  energy-cutoff  :     1000.00
  volume of cell :      135.05
      direct lattice vectors                 reciprocal lattice vectors
     5.130500000  0.000000000  0.000000000     0.194912777  0.000000000  0.000000000
     0.000000000  5.130500000  0.000000000     0.000000000  0.194912777  0.000000000
     0.000000000  0.000000000  5.130500000     0.000000000  0.000000000  0.194912777

  length of vectors
     5.130500000  5.130500000  5.130500000     0.194912777  0.194912777  0.194912777



 k-points in units of 2pi/SCALE and weight: auto                                    
   0.00000000  0.00000000  0.00000000       0.008
   0.03898256  0.00000000  0.00000000       0.016
   0.00000000  0.03898256  0.00000000       0.016
   0.00000000  0.00000000  0.03898256       0.016
   0.07796511  0.00000000  0.00000000       0.016
   0.00000000  0.07796511  0.00000000       0.016
   0.00000000  0.00000000  0.07796511       0.016
   0.03898256  0.03898256  0.00000000       0.016
   0.00000000  0.03898256  0.03898256       0.016
   0.03898256  0.00000000  0.03898256       0.016
  -0.03898256  0.03898256  0.00000000       0.016
  -0.03898256  0.00000000  0.03898256       0.016
   0.00000000 -0.03898256  0.03898256       0.016
   0.07796511  0.03898256  0.00000000       0.016
   0.00000000  0.07796511  0.03898256       0.016
   0.03898256  0.00000000  0.07796511       0.016
  -0.03898256  0.07796511  0.00000000       0.016
  -0.07796511  0.00000000  0.03898256       0.016
   0.00000000  0.03898256  0.07796511       0.016
   0.00000000 -0.07796511  0.03898256       0.016
  -0.03898256  0.00000000  0.07796511       0.016
   0.07796511  0.00000000  0.03898256       0.016
   0.00000000 -0.03898256  0.07796511       0.016
   0.07796511 -0.03898256  0.00000000       0.016
   0.03898256  0.07796511  0.00000000       0.016
   0.07796511  0.07796511  0.00000000       0.016
   0.00000000  0.07796511  0.07796511       0.016
   0.07796511  0.00000000  0.07796511       0.016
  -0.07796511  0.07796511  0.00000000       0.016
  -0.07796511  0.00000000  0.07796511       0.016
   0.00000000 -0.07796511  0.07796511       0.016
   0.03898256  0.03898256  0.03898256       0.016
  -0.03898256  0.03898256  0.03898256       0.016
  -0.03898256 -0.03898256  0.03898256       0.016
   0.03898256 -0.03898256  0.03898256       0.016
   0.07796511  0.03898256  0.03898256       0.016
   0.03898256  0.07796511  0.03898256       0.016
   0.03898256  0.03898256  0.07796511       0.016
  -0.03898256  0.07796511  0.03898256       0.016
  -0.07796511  0.03898256  0.03898256       0.016
  -0.03898256  0.03898256  0.07796511       0.016
  -0.07796511 -0.03898256  0.03898256       0.016
  -0.03898256 -0.07796511  0.03898256       0.016
  -0.03898256 -0.03898256  0.07796511       0.016
   0.03898256 -0.07796511  0.03898256       0.016
   0.07796511 -0.03898256  0.03898256       0.016
   0.03898256 -0.03898256  0.07796511       0.016
   0.07796511  0.07796511  0.03898256       0.016
   0.03898256  0.07796511  0.07796511       0.016
   0.07796511  0.03898256  0.07796511       0.016
  -0.07796511  0.07796511  0.03898256       0.016
  -0.07796511  0.03898256  0.07796511       0.016
  -0.03898256  0.07796511  0.07796511       0.016
  -0.07796511 -0.07796511  0.03898256       0.016
  -0.03898256 -0.07796511  0.07796511       0.016
  -0.07796511 -0.03898256  0.07796511       0.016
   0.07796511 -0.07796511  0.03898256       0.016
   0.07796511 -0.03898256  0.07796511       0.016
   0.03898256 -0.07796511  0.07796511       0.016
   0.07796511  0.07796511  0.07796511       0.016
  -0.07796511  0.07796511  0.07796511       0.016
  -0.07796511 -0.07796511  0.07796511       0.016
   0.07796511 -0.07796511  0.07796511       0.016

 k-points in reciprocal lattice and weights: auto                                    
   0.00000000  0.00000000  0.00000000       0.008
   0.20000000  0.00000000  0.00000000       0.016
   0.00000000  0.20000000  0.00000000       0.016
   0.00000000  0.00000000  0.20000000       0.016
   0.40000000  0.00000000  0.00000000       0.016
   0.00000000  0.40000000  0.00000000       0.016
   0.00000000  0.00000000  0.40000000       0.016
   0.20000000  0.20000000  0.00000000       0.016
   0.00000000  0.20000000  0.20000000       0.016
   0.20000000  0.00000000  0.20000000       0.016
  -0.20000000  0.20000000  0.00000000       0.016
  -0.20000000  0.00000000  0.20000000       0.016
   0.00000000 -0.20000000  0.20000000       0.016
   0.40000000  0.20000000  0.00000000       0.016
   0.00000000  0.40000000  0.20000000       0.016
   0.20000000  0.00000000  0.40000000       0.016
  -0.20000000  0.40000000  0.00000000       0.016
  -0.40000000  0.00000000  0.20000000       0.016
   0.00000000  0.20000000  0.40000000       0.016
   0.00000000 -0.40000000  0.20000000       0.016
  -0.20000000  0.00000000  0.40000000       0.016
   0.40000000  0.00000000  0.20000000       0.016
   0.00000000 -0.20000000  0.40000000       0.016
   0.40000000 -0.20000000  0.00000000       0.016
   0.20000000  0.40000000  0.00000000       0.016
   0.40000000  0.40000000  0.00000000       0.016
   0.00000000  0.40000000  0.40000000       0.016
   0.40000000  0.00000000  0.40000000       0.016
  -0.40000000  0.40000000  0.00000000       0.016
  -0.40000000  0.00000000  0.40000000       0.016
   0.00000000 -0.40000000  0.40000000       0.016
   0.20000000  0.20000000  0.20000000       0.016
  -0.20000000  0.20000000  0.20000000       0.016
  -0.20000000 -0.20000000  0.20000000       0.016
   0.20000000 -0.20000000  0.20000000       0.016
   0.40000000  0.20000000  0.20000000       0.016
   0.20000000  0.40000000  0.20000000       0.016
   0.20000000  0.20000000  0.40000000       0.016
  -0.20000000  0.40000000  0.20000000       0.016
  -0.40000000  0.20000000  0.20000000       0.016
  -0.20000000  0.20000000  0.40000000       0.016
  -0.40000000 -0.20000000  0.20000000       0.016
  -0.20000000 -0.40000000  0.20000000       0.016
  -0.20000000 -0.20000000  0.40000000       0.016
   0.20000000 -0.40000000  0.20000000       0.016
   0.40000000 -0.20000000  0.20000000       0.016
   0.20000000 -0.20000000  0.40000000       0.016
   0.40000000  0.40000000  0.20000000       0.016
   0.20000000  0.40000000  0.40000000       0.016
   0.40000000  0.20000000  0.40000000       0.016
  -0.40000000  0.40000000  0.20000000       0.016
  -0.40000000  0.20000000  0.40000000       0.016
  -0.20000000  0.40000000  0.40000000       0.016
  -0.40000000 -0.40000000  0.20000000       0.016
  -0.20000000 -0.40000000  0.40000000       0.016
  -0.40000000 -0.20000000  0.40000000       0.016
   0.40000000 -0.40000000  0.20000000       0.016
   0.40000000 -0.20000000  0.40000000       0.016
   0.20000000 -0.40000000  0.40000000       0.016
   0.40000000  0.40000000  0.40000000       0.016
  -0.40000000  0.40000000  0.40000000       0.016
  -0.40000000 -0.40000000  0.40000000       0.016
   0.40000000 -0.40000000  0.40000000       0.016

 position of ions in fractional coordinates (direct lattice) 
   0.20362711  0.20362143  0.20363040
   0.70362703  0.29637922  0.79636978
   0.79637620  0.70362109  0.29636868
   0.29637636  0.79637987  0.70363103
   0.36292455  0.27216007  0.10381685
   0.27217311  0.10381141  0.36294383
   0.10380399  0.36291093  0.27216364
   0.86292436  0.22784076  0.89618315
   0.77217332  0.39618939  0.63705596
   0.60380405  0.13708987  0.72783623
   0.72782847  0.60381181  0.13705682
   0.89619601  0.86291010  0.22783767
   0.39619650  0.63709009  0.77216223
   0.13707612  0.72784076  0.60381598
   0.22782897  0.89618859  0.86294272
   0.63707550  0.77215989  0.39618370

 position of ions in cartesian coordinates  (Angst):
   1.04470891  1.04467975  1.04472578
   3.60995847  1.52057361  4.08577516
   4.08580811  3.60992798  1.52051951
   1.52055891  4.08582692  3.60997900
   1.86198440  1.39631721  0.53263233
   1.39638414  0.53260446  1.86208330
   0.53256637  1.86191453  1.39633557
   4.42723342  1.16893701  4.59786767
   3.96163521  2.03264968  3.26841562
   3.09781668  0.70333959  3.73416376
   3.73412397  3.09785652  0.70317001
   4.59793363  4.42716029  1.16892118
   2.03268616  3.26859071  3.96157834
   0.70326905  3.73418703  3.09787790
   1.16887653  4.59789554  4.42732765
   3.26851588  3.96156632  2.03262046



--------------------------------------------------------------------------------------------------------


 k-point   1 :   0.0000 0.0000 0.0000  plane waves:    9771
 k-point   2 :   0.2000 0.0000 0.0000  plane waves:    9711
 k-point   3 :   0.0000 0.2000 0.0000  plane waves:    9711
 k-point   4 :   0.0000 0.0000 0.2000  plane waves:    9711
 k-point   5 :   0.4000 0.0000 0.0000  plane waves:    9722
 k-point   6 :   0.0000 0.4000 0.0000  plane waves:    9722
 k-point   7 :   0.0000 0.0000 0.4000  plane waves:    9722
 k-point   8 :   0.2000 0.2000 0.0000  plane waves:    9663
 k-point   9 :   0.0000 0.2000 0.2000  plane waves:    9663
 k-point  10 :   0.2000 0.0000 0.2000  plane waves:    9663
 k-point  11 :  -0.2000 0.2000 0.0000  plane waves:    9663
 k-point  12 :  -0.2000 0.0000 0.2000  plane waves:    9663
 k-point  13 :   0.0000-0.2000 0.2000  plane waves:    9663
 k-point  14 :   0.4000 0.2000 0.0000  plane waves:    9709
 k-point  15 :   0.0000 0.4000 0.2000  plane waves:    9709
 k-point  16 :   0.2000 0.0000 0.4000  plane waves:    9709
 k-point  17 :  -0.2000 0.4000 0.0000  plane waves:    9709
 k-point  18 :  -0.4000 0.0000 0.2000  plane waves:    9709
 k-point  19 :   0.0000 0.2000 0.4000  plane waves:    9709
 k-point  20 :   0.0000-0.4000 0.2000  plane waves:    9709
 k-point  21 :  -0.2000 0.0000 0.4000  plane waves:    9709
 k-point  22 :   0.4000 0.0000 0.2000  plane waves:    9709
 k-point  23 :   0.0000-0.2000 0.4000  plane waves:    9709
 k-point  24 :   0.4000-0.2000 0.0000  plane waves:    9709
 k-point  25 :   0.2000 0.4000 0.0000  plane waves:    9709
 k-point  26 :   0.4000 0.4000 0.0000  plane waves:    9690
 k-point  27 :   0.0000 0.4000 0.4000  plane waves:    9690
 k-point  28 :   0.4000 0.0000 0.4000  plane waves:    9690
 k-point  29 :  -0.4000 0.4000 0.0000  plane waves:    9690
 k-point  30 :  -0.4000 0.0000 0.4000  plane waves:    9690
 k-point  31 :   0.0000-0.4000 0.4000  plane waves:    9690
 k-point  32 :   0.2000 0.2000 0.2000  plane waves:    9714
 k-point  33 :  -0.2000 0.2000 0.2000  plane waves:    9714
 k-point  34 :  -0.2000-0.2000 0.2000  plane waves:    9714
 k-point  35 :   0.2000-0.2000 0.2000  plane waves:    9714
 k-point  36 :   0.4000 0.2000 0.2000  plane waves:    9701
 k-point  37 :   0.2000 0.4000 0.2000  plane waves:    9701
 k-point  38 :   0.2000 0.2000 0.4000  plane waves:    9701
 k-point  39 :  -0.2000 0.4000 0.2000  plane waves:    9701
 k-point  40 :  -0.4000 0.2000 0.2000  plane waves:    9701
 k-point  41 :  -0.2000 0.2000 0.4000  plane waves:    9701
 k-point  42 :  -0.4000-0.2000 0.2000  plane waves:    9701
 k-point  43 :  -0.2000-0.4000 0.2000  plane waves:    9701
 k-point  44 :  -0.2000-0.2000 0.4000  plane waves:    9701
 k-point  45 :   0.2000-0.4000 0.2000  plane waves:    9701
 k-point  46 :   0.4000-0.2000 0.2000  plane waves:    9701
 k-point  47 :   0.2000-0.2000 0.4000  plane waves:    9701
 k-point  48 :   0.4000 0.4000 0.2000  plane waves:    9707
 k-point  49 :   0.2000 0.4000 0.4000  plane waves:    9707
 k-point  50 :   0.4000 0.2000 0.4000  plane waves:    9707
 k-point  51 :  -0.4000 0.4000 0.2000  plane waves:    9707
 k-point  52 :  -0.4000 0.2000 0.4000  plane waves:    9707
 k-point  53 :  -0.2000 0.4000 0.4000  plane waves:    9707
 k-point  54 :  -0.4000-0.4000 0.2000  plane waves:    9707
 k-point  55 :  -0.2000-0.4000 0.4000  plane waves:    9707
 k-point  56 :  -0.4000-0.2000 0.4000  plane waves:    9707
 k-point  57 :   0.4000-0.4000 0.2000  plane waves:    9707
 k-point  58 :   0.4000-0.2000 0.4000  plane waves:    9707
 k-point  59 :   0.2000-0.4000 0.4000  plane waves:    9707
 k-point  60 :   0.4000 0.4000 0.4000  plane waves:    9688
 k-point  61 :  -0.4000 0.4000 0.4000  plane waves:    9688
 k-point  62 :  -0.4000-0.4000 0.4000  plane waves:    9688
 k-point  63 :   0.4000-0.4000 0.4000  plane waves:    9688

 maximum and minimum number of plane-waves per node :       328      277

 maximum number of plane-waves:      9771
 maximum index in each direction: 
   IXMAX=   13   IYMAX=   13   IZMAX=   13
   IXMIN=  -13   IYMIN=  -13   IZMIN=  -13


 parallel 3D FFT for wavefunctions:
    minimum data exchange during FFTs selected (reduces bandwidth)
 parallel 3D FFT for charge:
    minimum data exchange during FFTs selected (reduces bandwidth)


 total amount of memory used by VASP MPI-rank0    41338. kBytes
=======================================================================

   base      :      30000. kBytes
   nonl-proj :       2728. kBytes
   fftplans  :        601. kBytes
   grid      :        896. kBytes
   one-center:          3. kBytes
   wavefun   :       7110. kBytes

     INWAV:  cpu time      0.0001: real time      0.0002
 Broyden mixing: mesh for mixing (old mesh)
   NGX = 27   NGY = 27   NGZ = 27
  (NGX  =108   NGY  =108   NGZ  =108)
  gives a total of  19683 points

 initial charge density was supplied:
 charge density of overlapping atoms calculated
 number of electron      32.0000000 magnetization 
 keeping initial charge density in first step


--------------------------------------------------------------------------------------------------------


 Maximum index for augmentation-charges            0 (set IRDMAX)


--------------------------------------------------------------------------------------------------------


 First call to EWALD:  gamma=   0.345
 Maximum number of real-space cells 3x 3x 3
 Maximum number of reciprocal cells 3x 3x 3

    FEWALD:  cpu time      0.0035: real time      0.0035


--------------------------------------- Ionic step        1  -------------------------------------------




--------------------------------------- Iteration      1(   1)  ---------------------------------------


    POTLOK:  cpu time      0.0268: real time      0.0274
    SETDIJ:  cpu time      0.0077: real time      0.0077
    TRIAL :  cpu time      0.6686: real time      0.6700
    CORREC:  cpu time      0.0015: real time      0.0015
    --------------------------------------------
      LOOP:  cpu time      0.7082: real time      0.7107

 eigenvalue-minimisations  :  3528
 total energy-change (2. order) : 0.2148270E+03  (-0.2315144E+04)
 number of electron      32.0000000 magnetization 
 augmentation part       32.0000000 magnetization 

 Free energy of the ion-electron system (eV)
  ---------------------------------------------------
  alpha Z        PSCENC =        20.96897804
  Ewald energy   TEWEN  =      -598.68038505
  -Hartree energ DENC   =      -427.01813708
  -exchange      EXHF   =         0.00000000
  -V(xc)+E(xc)   XCENC  =        94.92361733
  PAW double counting   =       839.50776299     -832.86315139
  entropy T*S    EENTRO =        -0.00009439
  eigenvalues    EBANDS =       -89.51314885
  atomic energy  EATOM  =      1207.50155879
  ---------------------------------------------------
  free energy    TOTEN  =       214.82700039 eV

  energy without entropy =      214.82709478  energy(sigma->0) =      214.82704758


--------------------------------------------------------------------------------------------------------




--------------------------------------- Iteration      1(   2)  ---------------------------------------


    TRIAL :  cpu time      0.7651: real time      0.7654
    CORREC:  cpu time      0.0004: real time      0.0004
    --------------------------------------------
      LOOP:  cpu time      0.7775: real time      0.7947

 eigenvalue-minimisations  :  4872
 total energy-change (2. order) :-0.2622055E+03  (-0.2458615E+03)
 number of electron      32.0000000 magnetization 
 augmentation part       32.0000000 magnetization 

 Free energy of the ion-electron system (eV)
  ---------------------------------------------------
  alpha Z        PSCENC =        20.96897804
  Ewald energy   TEWEN  =      -598.68038505
  -Hartree energ DENC   =      -427.01813708
  -exchange      EXHF   =         0.00000000
  -V(xc)+E(xc)   XCENC  =        94.92361733
  PAW double counting   =       839.50776299     -832.86315139
  entropy T*S    EENTRO =        -0.00000000
  eigenvalues    EBANDS =      -351.71872830
  atomic energy  EATOM  =      1207.50155879
  ---------------------------------------------------
  free energy    TOTEN  =       -47.37848467 eV

  energy without entropy =      -47.37848467  energy(sigma->0) =      -47.37848467


--------------------------------------------------------------------------------------------------------




--------------------------------------- Iteration      1(   3)  ---------------------------------------


    TRIAL :  cpu time      0.7124: real time      0.7124
    CORREC:  cpu time      0.0003: real time      0.0003
    --------------------------------------------
      LOOP:  cpu time      0.7252: real time      0.7435

 eigenvalue-minimisations  :  4540
 total energy-change (2. order) :-0.3928984E+02  (-0.3879334E+02)
 number of electron      32.0000000 magnetization 
 augmentation part       32.0000000 magnetization 

 Free energy of the ion-electron system (eV)
  ---------------------------------------------------
  alpha Z        PSCENC =        20.96897804
  Ewald energy   TEWEN  =      -598.68038505
  -Hartree energ DENC   =      -427.01813708
  -exchange      EXHF   =         0.00000000
  -V(xc)+E(xc)   XCENC  =        94.92361733
  PAW double counting   =       839.50776299     -832.86315139
  entropy T*S    EENTRO =        -0.00000000
  eigenvalues    EBANDS =      -391.00857192
  atomic energy  EATOM  =      1207.50155879
  ---------------------------------------------------
  free energy    TOTEN  =       -86.66832828 eV

  energy without entropy =      -86.66832828  energy(sigma->0) =      -86.66832828


--------------------------------------------------------------------------------------------------------




--------------------------------------- Iteration      1(   4)  ---------------------------------------


    TRIAL :  cpu time      0.7529: real time      0.7532
    CORREC:  cpu time      0.0003: real time      0.0003
    --------------------------------------------
      LOOP:  cpu time      0.7821: real time      0.7826

 eigenvalue-minimisations  :  4632
 total energy-change (2. order) :-0.1245113E+01  (-0.1240656E+01)
 number of electron      32.0000000 magnetization 
 augmentation part       32.0000000 magnetization 

 Free energy of the ion-electron system (eV)
  ---------------------------------------------------
  alpha Z        PSCENC =        20.96897804
  Ewald energy   TEWEN  =      -598.68038505
  -Hartree energ DENC   =      -427.01813708
  -exchange      EXHF   =         0.00000000
  -V(xc)+E(xc)   XCENC  =        94.92361733
  PAW double counting   =       839.50776299     -832.86315139
  entropy T*S    EENTRO =        -0.00000000
  eigenvalues    EBANDS =      -392.25368489
  atomic energy  EATOM  =      1207.50155879
  ---------------------------------------------------
  free energy    TOTEN  =       -87.91344126 eV

  energy without entropy =      -87.91344126  energy(sigma->0) =      -87.91344126


--------------------------------------------------------------------------------------------------------




--------------------------------------- Iteration      1(   5)  ---------------------------------------


    TRIAL :  cpu time      0.7042: real time      0.7045
    CORREC:  cpu time      0.0003: real time      0.0003
    CHARGE:  cpu time      0.0295: real time      0.0304
    --------------------------------------------
      LOOP:  cpu time      0.7470: real time      0.7661

 eigenvalue-minimisations  :  4532
 total energy-change (2. order) :-0.2622787E-01  (-0.2620493E-01)
 number of electron      32.0000000 magnetization 
 augmentation part        0.0460641 magnetization 

 Free energy of the ion-electron system (eV)
  ---------------------------------------------------
  alpha Z        PSCENC =        20.96897804
  Ewald energy   TEWEN  =      -598.68038505
  -Hartree energ DENC   =      -427.01813708
  -exchange      EXHF   =         0.00000000
  -V(xc)+E(xc)   XCENC  =        94.92361733
  PAW double counting   =       839.50776299     -832.86315139
  entropy T*S    EENTRO =        -0.00000000
  eigenvalues    EBANDS =      -392.27991276
  atomic energy  EATOM  =      1207.50155879
  ---------------------------------------------------
  free energy    TOTEN  =       -87.93966913 eV

  energy without entropy =      -87.93966913  energy(sigma->0) =      -87.93966913


--------------------------------------------------------------------------------------------------------




--------------------------------------- Iteration      1(   6)  ---------------------------------------


    POTLOK:  cpu time      0.0108: real time      0.0108
    SETDIJ:  cpu time      0.0018: real time      0.0018
    TRIAL :  cpu time      0.4019: real time      0.4032
    CORREC:  cpu time      0.2518: real time      0.2524
    CHARGE:  cpu time      0.0169: real time      0.0169
    --------------------------------------------
      LOOP:  cpu time      0.6981: real time      0.7137

 eigenvalue-minimisations  :     0
 total energy-change (2. order) : 0.2162203E+02  (-0.1075497E+02)
 number of electron      32.0000000 magnetization 
 augmentation part       -0.0043189 magnetization 

 Free energy of the ion-electron system (eV)
  ---------------------------------------------------
  alpha Z        PSCENC =        20.96897804
  Ewald energy   TEWEN  =      -598.68038505
  -Hartree energ DENC   =      -668.64116790
  -exchange      EXHF   =         0.00000000
  -V(xc)+E(xc)   XCENC  =       110.61574052
  PAW double counting   =      6419.31364255    -6414.07620388
  entropy T*S    EENTRO =        -0.00000000
  eigenvalues    EBANDS =      -143.31980557
  atomic energy  EATOM  =      1207.50155879
  ---------------------------------------------------
  free energy    TOTEN  =       -66.31764250 eV

  energy without entropy =      -66.31764250  energy(sigma->0) =      -66.31764250


--------------------------------------------------------------------------------------------------------




--------------------------------------- Iteration      1(   7)  ---------------------------------------


    POTLOK:  cpu time      0.0110: real time      0.0110
    SETDIJ:  cpu time      0.0011: real time      0.0011
    TRIAL :  cpu time      0.3800: real time      0.3800
    CORREC:  cpu time      0.2436: real time      0.2437
    CHARGE:  cpu time      0.0224: real time      0.0224
    --------------------------------------------
      LOOP:  cpu time      0.6738: real time      0.6889

 eigenvalue-minimisations  :     0
 total energy-change (2. order) :-0.1075907E+02  (-0.1232572E+01)
 number of electron      32.0000000 magnetization 
 augmentation part       -0.0329805 magnetization 

 Free energy of the ion-electron system (eV)
  ---------------------------------------------------
  alpha Z        PSCENC =        20.96897804
  Ewald energy   TEWEN  =      -598.68038505
  -Hartree energ DENC   =      -554.02265035
  -exchange      EXHF   =         0.00000000
  -V(xc)+E(xc)   XCENC  =       103.79694918
  PAW double counting   =     12282.36706753   -12276.29191568
  entropy T*S    EENTRO =        -0.00000000
  eigenvalues    EBANDS =      -262.71631815
  atomic energy  EATOM  =      1207.50155879
  ---------------------------------------------------
  free energy    TOTEN  =       -77.07671568 eV

  energy without entropy =      -77.07671568  energy(sigma->0) =      -77.07671568


--------------------------------------------------------------------------------------------------------




--------------------------------------- Iteration      1(   8)  ---------------------------------------


    POTLOK:  cpu time      0.0122: real time      0.0122
    SETDIJ:  cpu time      0.0005: real time      0.0005
    TRIAL :  cpu time      0.4229: real time      0.4232
    CORREC:  cpu time      0.2408: real time      0.2408
    CHARGE:  cpu time      0.0169: real time      0.0169
    --------------------------------------------
      LOOP:  cpu time      0.7082: real time      0.7226

 eigenvalue-minimisations  :     0
 total energy-change (2. order) :-0.1232963E+01  (-0.4371382E+00)
 number of electron      32.0000000 magnetization 
 augmentation part       -0.0287640 magnetization 

 Free energy of the ion-electron system (eV)
  ---------------------------------------------------
  alpha Z        PSCENC =        20.96897804
  Ewald energy   TEWEN  =      -598.68038505
  -Hartree energ DENC   =      -544.02210937
  -exchange      EXHF   =         0.00000000
  -V(xc)+E(xc)   XCENC  =       103.30944485
  PAW double counting   =     12155.62103479   -12149.43866421
  entropy T*S    EENTRO =        -0.00000000
  eigenvalues    EBANDS =      -273.56953616
  atomic energy  EATOM  =      1207.50155879
  ---------------------------------------------------
  free energy    TOTEN  =       -78.30967831 eV

  energy without entropy =      -78.30967831  energy(sigma->0) =      -78.30967831


--------------------------------------------------------------------------------------------------------




--------------------------------------- Iteration      1(   9)  ---------------------------------------


    POTLOK:  cpu time      0.0113: real time      0.0113
    SETDIJ:  cpu time      0.0011: real time      0.0011
    TRIAL :  cpu time      0.3783: real time      0.3783
    CORREC:  cpu time      0.2396: real time      0.2399
    CHARGE:  cpu time      0.0168: real time      0.0168
    --------------------------------------------
      LOOP:  cpu time      0.6647: real time      0.6774

 eigenvalue-minimisations  :     0
 total energy-change (2. order) :-0.4327058E+00  (-0.1047678E+00)
 number of electron      32.0000000 magnetization 
 augmentation part       -0.0263228 magnetization 

 Free energy of the ion-electron system (eV)
  ---------------------------------------------------
  alpha Z        PSCENC =        20.96897804
  Ewald energy   TEWEN  =      -598.68038505
  -Hartree energ DENC   =      -538.20659330
  -exchange      EXHF   =         0.00000000
  -V(xc)+E(xc)   XCENC  =       102.92172025
  PAW double counting   =     11056.05871299   -11049.87530099
  entropy T*S    EENTRO =        -0.00000000
  eigenvalues    EBANDS =      -279.43107486
  atomic energy  EATOM  =      1207.50155879
  ---------------------------------------------------
  free energy    TOTEN  =       -78.74238414 eV

  energy without entropy =      -78.74238414  energy(sigma->0) =      -78.74238414


--------------------------------------------------------------------------------------------------------




--------------------------------------- Iteration      1(  10)  ---------------------------------------


    POTLOK:  cpu time      0.0108: real time      0.0108
    SETDIJ:  cpu time      0.0017: real time      0.0017
    TRIAL :  cpu time      0.3781: real time      0.3781
    CORREC:  cpu time      0.2401: real time      0.2401
    CHARGE:  cpu time      0.0168: real time      0.0168
    --------------------------------------------
      LOOP:  cpu time      0.6779: real time      0.6781

 eigenvalue-minimisations  :     0
 total energy-change (2. order) :-0.1046581E+00  (-0.1766102E-01)
 number of electron      32.0000000 magnetization 
 augmentation part       -0.0267088 magnetization 

 Free energy of the ion-electron system (eV)
  ---------------------------------------------------
  alpha Z        PSCENC =        20.96897804
  Ewald energy   TEWEN  =      -598.68038505
  -Hartree energ DENC   =      -536.79484677
  -exchange      EXHF   =         0.00000000
  -V(xc)+E(xc)   XCENC  =       102.76607849
  PAW double counting   =     10363.47859409   -10357.31627543
  entropy T*S    EENTRO =        -0.00000000
  eigenvalues    EBANDS =      -280.77074445
  atomic energy  EATOM  =      1207.50155879
  ---------------------------------------------------
  free energy    TOTEN  =       -78.84704227 eV

  energy without entropy =      -78.84704227  energy(sigma->0) =      -78.84704227


--------------------------------------------------------------------------------------------------------




--------------------------------------- Iteration      1(  11)  ---------------------------------------


    POTLOK:  cpu time      0.0107: real time      0.0107
    SETDIJ:  cpu time      0.0017: real time      0.0017
    TRIAL :  cpu time      0.3775: real time      0.3777
    CORREC:  cpu time      0.2477: real time      0.2477
    CHARGE:  cpu time      0.0181: real time      0.0181
    --------------------------------------------
      LOOP:  cpu time      0.6854: real time      0.6859

 eigenvalue-minimisations  :     0
 total energy-change (2. order) :-0.1765482E-01  (-0.2931865E-02)
 number of electron      32.0000000 magnetization 
 augmentation part       -0.0267844 magnetization 

 Free energy of the ion-electron system (eV)
  ---------------------------------------------------
  alpha Z        PSCENC =        20.96897804
  Ewald energy   TEWEN  =      -598.68038505
  -Hartree energ DENC   =      -536.89416527
  -exchange      EXHF   =         0.00000000
  -V(xc)+E(xc)   XCENC  =       102.74891903
  PAW double counting   =     10291.11548160   -10284.95928704
  entropy T*S    EENTRO =        -0.00000000
  eigenvalues    EBANDS =      -280.66579720
  atomic energy  EATOM  =      1207.50155879
  ---------------------------------------------------
  free energy    TOTEN  =       -78.86469709 eV

  energy without entropy =      -78.86469709  energy(sigma->0) =      -78.86469709


--------------------------------------------------------------------------------------------------------




--------------------------------------- Iteration      1(  12)  ---------------------------------------


    POTLOK:  cpu time      0.0107: real time      0.0107
    SETDIJ:  cpu time      0.0018: real time      0.0018
    TRIAL :  cpu time      0.3918: real time      0.3922
    CORREC:  cpu time      0.2398: real time      0.2398
    CHARGE:  cpu time      0.0169: real time      0.0169
    --------------------------------------------
      LOOP:  cpu time      0.6738: real time      0.6910

 eigenvalue-minimisations  :     0
 total energy-change (2. order) :-0.2932141E-02  (-0.5682573E-03)
 number of electron      32.0000000 magnetization 
 augmentation part       -0.0267933 magnetization 

 Free energy of the ion-electron system (eV)
  ---------------------------------------------------
  alpha Z        PSCENC =        20.96897804
  Ewald energy   TEWEN  =      -598.68038505
  -Hartree energ DENC   =      -536.68792414
  -exchange      EXHF   =         0.00000000
  -V(xc)+E(xc)   XCENC  =       102.73240362
  PAW double counting   =     10369.26208416   -10363.10417925
  entropy T*S    EENTRO =        -0.00000000
  eigenvalues    EBANDS =      -280.86016541
  atomic energy  EATOM  =      1207.50155879
  ---------------------------------------------------
  free energy    TOTEN  =       -78.86762923 eV

  energy without entropy =      -78.86762923  energy(sigma->0) =      -78.86762923


--------------------------------------------------------------------------------------------------------




--------------------------------------- Iteration      1(  13)  ---------------------------------------


    POTLOK:  cpu time      0.0108: real time      0.0108
    SETDIJ:  cpu time      0.0017: real time      0.0017
    TRIAL :  cpu time      0.3782: real time      0.3782
    CORREC:  cpu time      0.2391: real time      0.2391
    CHARGE:  cpu time      0.0170: real time      0.0170
    --------------------------------------------
      LOOP:  cpu time      0.6583: real time      0.6770

 eigenvalue-minimisations  :     0
 total energy-change (2. order) :-0.5677974E-03  (-0.1110879E-03)
 number of electron      32.0000000 magnetization 
 augmentation part       -0.0267351 magnetization 

 Free energy of the ion-electron system (eV)
  ---------------------------------------------------
  alpha Z        PSCENC =        20.96897804
  Ewald energy   TEWEN  =      -598.68038505
  -Hartree energ DENC   =      -536.88672718
  -exchange      EXHF   =         0.00000000
  -V(xc)+E(xc)   XCENC  =       102.74384941
  PAW double counting   =     10384.09335301   -10377.93615003
  entropy T*S    EENTRO =        -0.00000000
  eigenvalues    EBANDS =      -280.67267402
  atomic energy  EATOM  =      1207.50155879
  ---------------------------------------------------
  free energy    TOTEN  =       -78.86819703 eV

  energy without entropy =      -78.86819703  energy(sigma->0) =      -78.86819703


--------------------------------------------------------------------------------------------------------




--------------------------------------- Iteration      1(  14)  ---------------------------------------


    POTLOK:  cpu time      0.0107: real time      0.0107
    SETDIJ:  cpu time      0.0017: real time      0.0017
    TRIAL :  cpu time      0.3780: real time      0.3784
    CORREC:  cpu time      0.2407: real time      0.2408
    CHARGE:  cpu time      0.0168: real time      0.0168
    --------------------------------------------
      LOOP:  cpu time      0.6616: real time      0.6779

 eigenvalue-minimisations  :     0
 total energy-change (2. order) :-0.1118483E-03  (-0.2343295E-04)
 number of electron      32.0000000 magnetization 
 augmentation part       -0.0266457 magnetization 

 Free energy of the ion-electron system (eV)
  ---------------------------------------------------
  alpha Z        PSCENC =        20.96897804
  Ewald energy   TEWEN  =      -598.68038505
  -Hartree energ DENC   =      -536.84458085
  -exchange      EXHF   =         0.00000000
  -V(xc)+E(xc)   XCENC  =       102.74114693
  PAW double counting   =     10379.31343775   -10373.15610342
  entropy T*S    EENTRO =        -0.00000000
  eigenvalues    EBANDS =      -280.71236108
  atomic energy  EATOM  =      1207.50155879
  ---------------------------------------------------
  free energy    TOTEN  =       -78.86830888 eV

  energy without entropy =      -78.86830888  energy(sigma->0) =      -78.86830888


--------------------------------------------------------------------------------------------------------




--------------------------------------- Iteration      1(  15)  ---------------------------------------


    POTLOK:  cpu time      0.0106: real time      0.0106
    SETDIJ:  cpu time      0.0018: real time      0.0018
    TRIAL :  cpu time      0.3786: real time      0.3789
    CORREC:  cpu time      0.2393: real time      0.2394
    CHARGE:  cpu time      0.0168: real time      0.0168
    --------------------------------------------
      LOOP:  cpu time      0.6774: real time      0.6781

 eigenvalue-minimisations  :     0
 total energy-change (2. order) :-0.2363588E-04  (-0.4814777E-05)
 number of electron      32.0000000 magnetization 
 augmentation part       -0.0266498 magnetization 

 Free energy of the ion-electron system (eV)
  ---------------------------------------------------
  alpha Z        PSCENC =        20.96897804
  Ewald energy   TEWEN  =      -598.68038505
  -Hartree energ DENC   =      -536.89172659
  -exchange      EXHF   =         0.00000000
  -V(xc)+E(xc)   XCENC  =       102.74421705
  PAW double counting   =     10373.54075885   -10367.38381132
  entropy T*S    EENTRO =        -0.00000000
  eigenvalues    EBANDS =      -280.66792230
  atomic energy  EATOM  =      1207.50155879
  ---------------------------------------------------
  free energy    TOTEN  =       -78.86833252 eV

  energy without entropy =      -78.86833252  energy(sigma->0) =      -78.86833252


--------------------------------------------------------------------------------------------------------




--------------------------------------- Iteration      1(  16)  ---------------------------------------


    POTLOK:  cpu time      0.0108: real time      0.0108
    SETDIJ:  cpu time      0.0017: real time      0.0017
    TRIAL :  cpu time      0.3779: real time      0.3779
    CORREC:  cpu time      0.2398: real time      0.2398
    CHARGE:  cpu time      0.0168: real time      0.0171
    --------------------------------------------
      LOOP:  cpu time      0.6602: real time      0.6785

 eigenvalue-minimisations  :     0
 total energy-change (2. order) :-0.4831138E-05  (-0.1103002E-05)
 number of electron      32.0000000 magnetization 
 augmentation part       -0.0266595 magnetization 

 Free energy of the ion-electron system (eV)
  ---------------------------------------------------
  alpha Z        PSCENC =        20.96897804
  Ewald energy   TEWEN  =      -598.68038505
  -Hartree energ DENC   =      -536.88519081
  -exchange      EXHF   =         0.00000000
  -V(xc)+E(xc)   XCENC  =       102.74391950
  PAW double counting   =     10375.77422109   -10369.61719033
  entropy T*S    EENTRO =        -0.00000000
  eigenvalues    EBANDS =      -280.67424859
  atomic energy  EATOM  =      1207.50155879
  ---------------------------------------------------
  free energy    TOTEN  =       -78.86833735 eV

  energy without entropy =      -78.86833735  energy(sigma->0) =      -78.86833735


--------------------------------------------------------------------------------------------------------




--------------------------------------- Iteration      1(  17)  ---------------------------------------


    POTLOK:  cpu time      0.0110: real time      0.0110
    SETDIJ:  cpu time      0.0014: real time      0.0014
    TRIAL :  cpu time      0.3784: real time      0.3784
    CORREC:  cpu time      0.2397: real time      0.2397
    CHARGE:  cpu time      0.0170: real time      0.0170
    --------------------------------------------
      LOOP:  cpu time      0.6610: real time      0.6782

 eigenvalue-minimisations  :     0
 total energy-change (2. order) :-0.9855830E-06  (-0.1962523E-06)
 number of electron      32.0000000 magnetization 
 augmentation part       -0.0266622 magnetization 

 Free energy of the ion-electron system (eV)
  ---------------------------------------------------
  alpha Z        PSCENC =        20.96897804
  Ewald energy   TEWEN  =      -598.68038505
  -Hartree energ DENC   =      -536.89151815
  -exchange      EXHF   =         0.00000000
  -V(xc)+E(xc)   XCENC  =       102.74439019
  PAW double counting   =     10378.60360337   -10372.44654902
  entropy T*S    EENTRO =        -0.00000000
  eigenvalues    EBANDS =      -280.66841651
  atomic energy  EATOM  =      1207.50155879
  ---------------------------------------------------
  free energy    TOTEN  =       -78.86833833 eV

  energy without entropy =      -78.86833833  energy(sigma->0) =      -78.86833833


--------------------------------------------------------------------------------------------------------




--------------------------------------- Iteration      1(  18)  ---------------------------------------


    POTLOK:  cpu time      0.0110: real time      0.0110
    SETDIJ:  cpu time      0.0192: real time      0.0192
    TRIAL :  cpu time      0.4027: real time      0.4032
    CORREC:  cpu time      0.2555: real time      0.2555
    CHARGE:  cpu time      0.0208: real time      0.0208
    --------------------------------------------
      LOOP:  cpu time      0.7534: real time      0.7541

 eigenvalue-minimisations  :     0
 total energy-change (2. order) :-0.1940552E-06  (-0.3418174E-07)
 number of electron      32.0000000 magnetization 
 augmentation part       -0.0266599 magnetization 

 Free energy of the ion-electron system (eV)
  ---------------------------------------------------
  alpha Z        PSCENC =        20.96897804
  Ewald energy   TEWEN  =      -598.68038505
  -Hartree energ DENC   =      -536.88889643
  -exchange      EXHF   =         0.00000000
  -V(xc)+E(xc)   XCENC  =       102.74423943
  PAW double counting   =     10379.37387994   -10373.21680355
  entropy T*S    EENTRO =        -0.00000000
  eigenvalues    EBANDS =      -280.67090970
  atomic energy  EATOM  =      1207.50155879
  ---------------------------------------------------
  free energy    TOTEN  =       -78.86833853 eV

  energy without entropy =      -78.86833853  energy(sigma->0) =      -78.86833853


--------------------------------------------------------------------------------------------------------




--------------------------------------- Iteration      1(  19)  ---------------------------------------


    POTLOK:  cpu time      0.0106: real time      0.0106
    SETDIJ:  cpu time      0.0026: real time      0.0026
    TRIAL :  cpu time      0.3946: real time      0.3946
    CORREC:  cpu time      0.2423: real time      0.2427
    EDDIAG:  cpu time      0.2388: real time      0.2394
    CHARGE:  cpu time      0.0169: real time      0.0169
    --------------------------------------------
      LOOP:  cpu time      0.9207: real time      0.9365

 eigenvalue-minimisations  :     0
 total energy-change (2. order) :-0.3495916E-07  (-0.6785502E-08)
 number of electron      32.0000000 magnetization 
 augmentation part       -0.0266590 magnetization 

 Free energy of the ion-electron system (eV)
  ---------------------------------------------------
  alpha Z        PSCENC =        20.96897804
  Ewald energy   TEWEN  =      -598.68038505
  -Hartree energ DENC   =      -536.88966345
  -exchange      EXHF   =         0.00000000
  -V(xc)+E(xc)   XCENC  =       102.74427827
  PAW double counting   =     10379.10755334   -10372.95049126
  entropy T*S    EENTRO =        -0.00000000
  eigenvalues    EBANDS =      -280.67016724
  atomic energy  EATOM  =      1207.50155879
  ---------------------------------------------------
  free energy    TOTEN  =       -78.86833856 eV

  energy without entropy =      -78.86833856  energy(sigma->0) =      -78.86833856


--------------------------------------------------------------------------------------------------------


  average scaling for gradient   1.1354


 average (electrostatic) potential at core
  the test charge radii are     0.5902  0.4325
  (the norm of the test charge is              1.0000)
       1 -99.2904       2 -99.2904       3 -99.2905       4 -99.2905       5 -42.4109
       6 -42.4102       7 -42.4110       8 -42.4109       9 -42.4102      10 -42.4110
      11 -42.4103      12 -42.4112      13 -42.4111      14 -42.4108      15 -42.4103
      16 -42.4107



 E-fermi :  -2.1448     XC(G=0):  -6.8875     alpha+bet : -5.1342

 Fermi energy:        -2.1447619192

 k-point     1 :       0.0000    0.0000    0.0000
  band No.  band energies     occupation 
      1     -17.8414      2.00000
      2     -17.2078      2.00000
      3     -17.2078      2.00000
      4     -17.2078      2.00000
      5      -8.0726      2.00000
      6      -8.0723      2.00000
      7      -8.0722      2.00000
      8      -7.2825      2.00000
      9      -7.2819      2.00000
     10      -7.0452      2.00000
     11      -7.0451      2.00000
     12      -7.0448      2.00000
     13      -2.7495      2.00000
     14      -2.7495      2.00000
     15      -2.7494      2.00000
     16      -2.2624      2.00000
     17       2.3117      0.00000
     18       5.5336      0.00000
     19       5.5337      0.00000
     20       5.5337      0.00000
     21       6.9102      0.00000
     22       6.9103      0.00000
     23       6.9104      0.00000
     24       9.0184      0.00000
     25       9.0218      0.00000
     26       9.0837      0.00000
     27       9.6633      0.00000
     28       9.6926      0.00000

 k-point     2 :       0.2000    0.0000    0.0000
  band No.  band energies     occupation 
      1     -17.7891      2.00000
      2     -17.3025      2.00000
      3     -17.2019      2.00000
      4     -17.1763      2.00000
      5      -8.0580      2.00000
      6      -8.0494      2.00000
      7      -7.9664      2.00000
      8      -7.3589      2.00000
      9      -7.2431      2.00000
     10      -7.2007      2.00000
     11      -7.0916      2.00000
     12      -6.9708      2.00000
     13      -2.8878      2.00000
     14      -2.8452      2.00000
     15      -2.6240      2.00000
     16      -2.3077      2.00000
     17       2.7072      0.00000
     18       5.3535      0.00000
     19       5.8577      0.00000
     20       5.8732      0.00000
     21       6.7994      0.00000
     22       7.0407      0.00000
     23       7.2255      0.00000
     24       8.6061      0.00000
     25       8.7653      0.00000
     26       9.2190      0.00000
     27       9.4527      0.00000
     28       9.7270      0.00000

 k-point     3 :       0.0000    0.2000    0.0000
  band No.  band energies     occupation 
      1     -17.7891      2.00000
      2     -17.3025      2.00000
      3     -17.2019      2.00000
      4     -17.1763      2.00000
      5      -8.0579      2.00000
      6      -8.0497      2.00000
      7      -7.9662      2.00000
      8      -7.3589      2.00000
      9      -7.2432      2.00000
     10      -7.2009      2.00000
     11      -7.0912      2.00000
     12      -6.9709      2.00000
     13      -2.8879      2.00000
     14      -2.8451      2.00000
     15      -2.6241      2.00000
     16      -2.3077      2.00000
     17       2.7072      0.00000
     18       5.3536      0.00000
     19       5.8577      0.00000
     20       5.8730      0.00000
     21       6.7994      0.00000
     22       7.0406      0.00000
     23       7.2258      0.00000
     24       8.6068      0.00000
     25       8.7661      0.00000
     26       9.2227      0.00000
     27       9.4385      0.00000
     28       9.7950      0.00000

 k-point     4 :       0.0000    0.0000    0.2000
  band No.  band energies     occupation 
      1     -17.7891      2.00000
      2     -17.3025      2.00000
      3     -17.2019      2.00000
      4     -17.1763      2.00000
      5      -8.0580      2.00000
      6      -8.0494      2.00000
      7      -7.9663      2.00000
      8      -7.3592      2.00000
      9      -7.2427      2.00000
     10      -7.2009      2.00000
     11      -7.0916      2.00000
     12      -6.9707      2.00000
     13      -2.8878      2.00000
     14      -2.8451      2.00000
     15      -2.6240      2.00000
     16      -2.3077      2.00000
     17       2.7072      0.00000
     18       5.3537      0.00000
     19       5.8577      0.00000
     20       5.8731      0.00000
     21       6.7994      0.00000
     22       7.0405      0.00000
     23       7.2256      0.00000
     24       8.6062      0.00000
     25       8.7658      0.00000
     26       9.2268      0.00000
     27       9.4453      0.00000
     28       9.7321      0.00000

 k-point     5 :       0.4000    0.0000    0.0000
  band No.  band energies     occupation 
      1     -17.6484      2.00000
      2     -17.4652      2.00000
      3     -17.1882      2.00000
      4     -17.1760      2.00000
      5      -8.0001      2.00000
      6      -7.9962      2.00000
      7      -7.7595      2.00000
      8      -7.5393      2.00000
      9      -7.3063      2.00000
     10      -7.2379      2.00000
     11      -7.1228      2.00000
     12      -7.0146      2.00000
     13      -2.9878      2.00000
     14      -2.9775      2.00000
     15      -2.5199      2.00000
     16      -2.4130      2.00000
     17       3.6749      0.00000
     18       4.7508      0.00000
     19       6.4181      0.00000
     20       6.5472      0.00000
     21       6.9779      0.00000
     22       7.1556      0.00000
     23       7.9248      0.00000
     24       8.2572      0.00000
     25       8.2715      0.00000
     26       8.5695      0.00000
     27       9.2825      0.00000
     28       9.6005      0.00000

 k-point     6 :       0.0000    0.4000    0.0000
  band No.  band energies     occupation 
      1     -17.6484      2.00000
      2     -17.4652      2.00000
      3     -17.1882      2.00000
      4     -17.1760      2.00000
      5      -8.0004      2.00000
      6      -7.9962      2.00000
      7      -7.7594      2.00000
      8      -7.5393      2.00000
      9      -7.3063      2.00000
     10      -7.2378      2.00000
     11      -7.1227      2.00000
     12      -7.0147      2.00000
     13      -2.9879      2.00000
     14      -2.9775      2.00000
     15      -2.5199      2.00000
     16      -2.4130      2.00000
     17       3.6749      0.00000
     18       4.7508      0.00000
     19       6.4179      0.00000
     20       6.5470      0.00000
     21       6.9778      0.00000
     22       7.1555      0.00000
     23       7.9252      0.00000
     24       8.2585      0.00000
     25       8.2704      0.00000
     26       8.5715      0.00000
     27       9.3213      0.00000
     28       9.4587      0.00000

 k-point     7 :       0.0000    0.0000    0.4000
  band No.  band energies     occupation 
      1     -17.6484      2.00000
      2     -17.4652      2.00000
      3     -17.1882      2.00000
      4     -17.1760      2.00000
      5      -8.0001      2.00000
      6      -7.9962      2.00000
      7      -7.7594      2.00000
      8      -7.5394      2.00000
      9      -7.3066      2.00000
     10      -7.2381      2.00000
     11      -7.1225      2.00000
     12      -7.0144      2.00000
     13      -2.9879      2.00000
     14      -2.9775      2.00000
     15      -2.5199      2.00000
     16      -2.4130      2.00000
     17       3.6750      0.00000
     18       4.7510      0.00000
     19       6.4181      0.00000
     20       6.5473      0.00000
     21       6.9779      0.00000
     22       7.1553      0.00000
     23       7.9248      0.00000
     24       8.2599      0.00000
     25       8.2709      0.00000
     26       8.5695      0.00000
     27       9.3342      0.00000
     28       9.4446      0.00000

 k-point     8 :       0.2000    0.2000    0.0000
  band No.  band energies     occupation 
      1     -17.7408      2.00000
      2     -17.3261      2.00000
      3     -17.2301      2.00000
      4     -17.1760      2.00000
      5      -8.0568      2.00000
      6      -8.0165      2.00000
      7      -7.9127      2.00000
      8      -7.3874      2.00000
      9      -7.3091      2.00000
[...]
      4     -17.2634      2.00000
      5      -8.0850      2.00000
      6      -8.0584      2.00000
      7      -7.9123      2.00000
      8      -7.8225      2.00000
      9      -7.1821      2.00000
     10      -7.1117      2.00000
     11      -6.9911      2.00000
     12      -6.9212      2.00000
     13      -2.9400      2.00000
     14      -2.9194      2.00000
     15      -2.4887      2.00000
     16      -2.4687      2.00000
     17       4.6226      0.00000
     18       5.3624      0.00000
     19       5.4459      0.00000
     20       5.8681      0.00000
     21       7.2782      0.00000
     22       7.3383      0.00000
     23       7.6928      0.00000
     24       7.8419      0.00000
     25       8.2846      0.00000
     26       8.7063      0.00000
     27       8.9553      0.00000
     28       9.1428      0.00000

 k-point    54 :      -0.4000   -0.4000    0.2000
  band No.  band energies     occupation 
      1     -17.4959      2.00000
      2     -17.4232      2.00000
      3     -17.2909      2.00000
      4     -17.2634      2.00000
      5      -8.0850      2.00000
      6      -8.0583      2.00000
      7      -7.9124      2.00000
      8      -7.8226      2.00000
      9      -7.1820      2.00000
     10      -7.1115      2.00000
     11      -6.9912      2.00000
     12      -6.9212      2.00000
     13      -2.9401      2.00000
     14      -2.9194      2.00000
     15      -2.4886      2.00000
     16      -2.4687      2.00000
     17       4.6225      0.00000
     18       5.3624      0.00000
     19       5.4459      0.00000
     20       5.8681      0.00000
     21       7.2782      0.00000
     22       7.3383      0.00000
     23       7.6928      0.00000
     24       7.8418      0.00000
     25       8.2848      0.00000
     26       8.7067      0.00000
     27       8.9536      0.00000
     28       9.1394      0.00000

 k-point    55 :      -0.2000   -0.4000    0.4000
  band No.  band energies     occupation 
      1     -17.4959      2.00000
      2     -17.4231      2.00000
      3     -17.2909      2.00000
      4     -17.2634      2.00000
      5      -8.0851      2.00000
      6      -8.0584      2.00000
      7      -7.9123      2.00000
      8      -7.8225      2.00000
      9      -7.1821      2.00000
     10      -7.1117      2.00000
     11      -6.9911      2.00000
     12      -6.9212      2.00000
     13      -2.9400      2.00000
     14      -2.9194      2.00000
     15      -2.4886      2.00000
     16      -2.4687      2.00000
     17       4.6226      0.00000
     18       5.3624      0.00000
     19       5.4459      0.00000
     20       5.8681      0.00000
     21       7.2782      0.00000
     22       7.3383      0.00000
     23       7.6928      0.00000
     24       7.8419      0.00000
     25       8.2846      0.00000
     26       8.7062      0.00000
     27       8.9546      0.00000
     28       9.1390      0.00000

 k-point    56 :      -0.4000   -0.2000    0.4000
  band No.  band energies     occupation 
      1     -17.4959      2.00000
      2     -17.4232      2.00000
      3     -17.2909      2.00000
      4     -17.2634      2.00000
      5      -8.0850      2.00000
      6      -8.0584      2.00000
      7      -7.9124      2.00000
      8      -7.8226      2.00000
      9      -7.1820      2.00000
     10      -7.1115      2.00000
     11      -6.9911      2.00000
     12      -6.9211      2.00000
     13      -2.9401      2.00000
     14      -2.9194      2.00000
     15      -2.4886      2.00000
     16      -2.4687      2.00000
     17       4.6226      0.00000
     18       5.3624      0.00000
     19       5.4459      0.00000
     20       5.8680      0.00000
     21       7.2782      0.00000
     22       7.3383      0.00000
     23       7.6930      0.00000
     24       7.8420      0.00000
     25       8.2846      0.00000
     26       8.7064      0.00000
     27       8.9548      0.00000
     28       9.1397      0.00000

 k-point    57 :       0.4000   -0.4000    0.2000
  band No.  band energies     occupation 
      1     -17.4959      2.00000
      2     -17.4232      2.00000
      3     -17.2909      2.00000
      4     -17.2634      2.00000
      5      -8.0850      2.00000
      6      -8.0583      2.00000
      7      -7.9124      2.00000
      8      -7.8226      2.00000
      9      -7.1820      2.00000
     10      -7.1115      2.00000
     11      -6.9912      2.00000
     12      -6.9212      2.00000
     13      -2.9401      2.00000
     14      -2.9194      2.00000
     15      -2.4886      2.00000
     16      -2.4687      2.00000
     17       4.6225      0.00000
     18       5.3624      0.00000
     19       5.4459      0.00000
     20       5.8681      0.00000
     21       7.2782      0.00000
     22       7.3383      0.00000
     23       7.6928      0.00000
     24       7.8418      0.00000
     25       8.2848      0.00000
     26       8.7062      0.00000
     27       8.9537      0.00000
     28       9.1400      0.00000

 k-point    58 :       0.4000   -0.2000    0.4000
  band No.  band energies     occupation 
      1     -17.4959      2.00000
      2     -17.4232      2.00000
      3     -17.2909      2.00000
      4     -17.2634      2.00000
      5      -8.0850      2.00000
      6      -8.0584      2.00000
      7      -7.9124      2.00000
      8      -7.8226      2.00000
      9      -7.1820      2.00000
     10      -7.1115      2.00000
     11      -6.9911      2.00000
     12      -6.9211      2.00000
     13      -2.9401      2.00000
     14      -2.9194      2.00000
     15      -2.4886      2.00000
     16      -2.4687      2.00000
     17       4.6226      0.00000
     18       5.3624      0.00000
     19       5.4459      0.00000
     20       5.8680      0.00000
     21       7.2782      0.00000
     22       7.3383      0.00000
     23       7.6930      0.00000
     24       7.8420      0.00000
     25       8.2846      0.00000
     26       8.7059      0.00000
     27       8.9536      0.00000
     28       9.1391      0.00000

 k-point    59 :       0.2000   -0.4000    0.4000
  band No.  band energies     occupation 
      1     -17.4959      2.00000
      2     -17.4231      2.00000
      3     -17.2909      2.00000
      4     -17.2634      2.00000
      5      -8.0851      2.00000
      6      -8.0584      2.00000
      7      -7.9123      2.00000
      8      -7.8225      2.00000
      9      -7.1821      2.00000
     10      -7.1117      2.00000
     11      -6.9911      2.00000
     12      -6.9212      2.00000
     13      -2.9400      2.00000
     14      -2.9194      2.00000
     15      -2.4886      2.00000
     16      -2.4687      2.00000
     17       4.6226      0.00000
     18       5.3624      0.00000
     19       5.4459      0.00000
     20       5.8681      0.00000
     21       7.2782      0.00000
     22       7.3383      0.00000
     23       7.6928      0.00000
     24       7.8419      0.00000
     25       8.2846      0.00000
     26       8.7060      0.00000
     27       8.9538      0.00000
     28       9.1400      0.00000

 k-point    60 :       0.4000    0.4000    0.4000
  band No.  band energies     occupation 
      1     -17.4363      2.00000
      2     -17.3946      2.00000
      3     -17.3276      2.00000
      4     -17.3056      2.00000
      5      -8.1387      2.00000
      6      -8.1356      2.00000
      7      -8.0545      2.00000
      8      -8.0104      2.00000
      9      -7.0210      2.00000
     10      -6.9523      2.00000
     11      -6.9393      2.00000
     12      -6.8711      2.00000
     13      -2.8135      2.00000
     14      -2.7985      2.00000
     15      -2.5295      2.00000
     16      -2.5266      2.00000
     17       4.8037      0.00000
     18       5.2284      0.00000
     19       5.2569      0.00000
     20       5.2597      0.00000
     21       7.4505      0.00000
     22       7.4725      0.00000
     23       7.7208      0.00000
     24       7.7833      0.00000
     25       8.5348      0.00000
     26       8.7822      0.00000
     27       8.9149      0.00000
     28       9.1123      0.00000

 k-point    61 :      -0.4000    0.4000    0.4000
  band No.  band energies     occupation 
      1     -17.4363      2.00000
      2     -17.3946      2.00000
      3     -17.3276      2.00000
      4     -17.3056      2.00000
      5      -8.1387      2.00000
      6      -8.1356      2.00000
      7      -8.0545      2.00000
      8      -8.0104      2.00000
      9      -7.0210      2.00000
     10      -6.9523      2.00000
     11      -6.9393      2.00000
     12      -6.8711      2.00000
     13      -2.8135      2.00000
     14      -2.7985      2.00000
     15      -2.5295      2.00000
     16      -2.5266      2.00000
     17       4.8037      0.00000
     18       5.2285      0.00000
     19       5.2569      0.00000
     20       5.2597      0.00000
     21       7.4505      0.00000
     22       7.4725      0.00000
     23       7.7208      0.00000
     24       7.7833      0.00000
     25       8.5349      0.00000
     26       8.7822      0.00000
     27       8.9149      0.00000
     28       9.1123      0.00000

 k-point    62 :      -0.4000   -0.4000    0.4000
  band No.  band energies     occupation 
      1     -17.4363      2.00000
      2     -17.3946      2.00000
      3     -17.3276      2.00000
      4     -17.3056      2.00000
      5      -8.1387      2.00000
      6      -8.1356      2.00000
      7      -8.0545      2.00000
      8      -8.0104      2.00000
      9      -7.0210      2.00000
     10      -6.9523      2.00000
     11      -6.9393      2.00000
     12      -6.8711      2.00000
     13      -2.8135      2.00000
     14      -2.7985      2.00000
     15      -2.5295      2.00000
     16      -2.5266      2.00000
     17       4.8037      0.00000
     18       5.2285      0.00000
     19       5.2570      0.00000
     20       5.2597      0.00000
     21       7.4505      0.00000
     22       7.4725      0.00000
     23       7.7208      0.00000
     24       7.7833      0.00000
     25       8.5349      0.00000
     26       8.7822      0.00000
     27       8.9148      0.00000
     28       9.1122      0.00000

 k-point    63 :       0.4000   -0.4000    0.4000
  band No.  band energies     occupation 
      1     -17.4363      2.00000
      2     -17.3946      2.00000
      3     -17.3276      2.00000
      4     -17.3056      2.00000
      5      -8.1387      2.00000
      6      -8.1356      2.00000
      7      -8.0545      2.00000
      8      -8.0104      2.00000
      9      -7.0210      2.00000
     10      -6.9523      2.00000
     11      -6.9392      2.00000
     12      -6.8711      2.00000
     13      -2.8135      2.00000
     14      -2.7985      2.00000
     15      -2.5295      2.00000
     16      -2.5266      2.00000
     17       4.8037      0.00000
     18       5.2285      0.00000
     19       5.2570      0.00000
     20       5.2597      0.00000
     21       7.4505      0.00000
     22       7.4725      0.00000
     23       7.7208      0.00000
     24       7.7833      0.00000
     25       8.5349      0.00000
     26       8.7822      0.00000
     27       8.9148      0.00000
     28       9.1122      0.00000


--------------------------------------------------------------------------------------------------------


 soft charge-density along one line, spin component           1
         0         1         2         3         4         5         6         7         8         9
 total charge-density along one line

 pseudopotential strength for first ion, spin component:           1
 19.892  27.861   0.029   0.029   0.029   0.043   0.043   0.043
 27.861  39.022   0.040   0.040   0.040   0.059   0.059   0.059
  0.029   0.040  -5.761   0.005   0.005  -8.644   0.007   0.007
  0.029   0.040   0.005  -5.761   0.005   0.007  -8.644   0.007
  0.029   0.040   0.005   0.005  -5.761   0.007   0.007  -8.644
  0.043   0.059  -8.644   0.007   0.007 -12.949   0.011   0.011
  0.043   0.059   0.007  -8.644   0.007   0.011 -12.949   0.011
  0.043   0.059   0.007   0.007  -8.644   0.011   0.011 -12.949
 total augmentation occupancy for first ion, spin component:           1
 11.682  -5.459   1.913   1.912   1.912  -0.911  -0.910  -0.910
 -5.459   2.660  -1.249  -1.249  -1.249   0.528   0.528   0.528
  1.913  -1.249   7.059  -0.856  -0.857  -2.736   0.497   0.498
  1.912  -1.249  -0.856   7.059  -0.857   0.497  -2.736   0.498
  1.912  -1.249  -0.857  -0.857   7.059   0.497   0.498  -2.736
 -0.911   0.528  -2.736   0.497   0.497   1.081  -0.243  -0.243
 -0.910   0.528   0.497  -2.736   0.498  -0.243   1.081  -0.243
 -0.910   0.528   0.498   0.498  -2.736  -0.243  -0.243   1.081


------------------------ aborting loop because EDIFF is reached ----------------------------------------


    FORLOC:  cpu time      0.0022: real time      0.0022
    FORNL :  cpu time      0.0930: real time      0.0930
    FORCOR:  cpu time      0.0133: real time      0.0133
    OFIELD:  cpu time      0.0031: real time      0.0033

 ---------------------------------------------------------------------------------------------

         DFTD3 V3.0 Rev 1        
 IVDW         = 11
 DF revpbe    
 parameters
 VDW_S6       =    1.0000
 VDW_S8       =    1.0100
 VDW_SR       =    0.9230
 rs18     =    1.0000
 alpha6   =   14.0000
 alpha8   =   16.0000
 k1-k3    =   16.0000    1.3333   -4.0000
 VDW_RADIUS   =   50.2022 A
 VDW_CNRADIUS =   21.1671 A
 Edisp (eV)   -1.13142

 E6    (eV) :    -0.8455
 E8    (eV) :    -0.2859
 % E8        : 25.27
    FORVDW:  cpu time      0.2301: real time      0.2306

 VOLUME and BASIS-vectors are now :
 -----------------------------------------------------------------------------
  energy-cutoff  :     1000.00
  volume of cell :      135.05
      direct lattice vectors                 reciprocal lattice vectors
     5.130500000  0.000000000  0.000000000     0.194912777  0.000000000  0.000000000
     0.000000000  5.130500000  0.000000000     0.000000000  0.194912777  0.000000000
     0.000000000  0.000000000  5.130500000     0.000000000  0.000000000  0.194912777

  length of vectors
     5.130500000  5.130500000  5.130500000     0.194912777  0.194912777  0.194912777


 FORCES acting on ions:
    Electron-Ion                     Ewald-Force                    Non-Local-Force
 -----------------------------------------------------------------------------------------------
   0.140E+02 0.140E+02 0.140E+02   -.291E+02 -.292E+02 -.291E+02   0.153E+02 0.153E+02 0.153E+02
   0.140E+02 -.140E+02 -.140E+02   -.291E+02 0.292E+02 0.291E+02   0.153E+02 -.153E+02 -.153E+02
   -.140E+02 0.140E+02 -.140E+02   0.291E+02 -.292E+02 0.291E+02   -.153E+02 0.153E+02 -.153E+02
   -.140E+02 -.140E+02 0.140E+02   0.291E+02 0.292E+02 -.291E+02   -.153E+02 -.153E+02 0.153E+02
   -.436E+02 -.202E+02 0.261E+02   0.491E+02 0.225E+02 -.297E+02   -.560E+01 -.234E+01 0.369E+01
   -.202E+02 0.261E+02 -.436E+02   0.225E+02 -.297E+02 0.491E+02   -.234E+01 0.369E+01 -.560E+01
   0.261E+02 -.436E+02 -.202E+02   -.297E+02 0.491E+02 0.225E+02   0.369E+01 -.561E+01 -.234E+01
   -.436E+02 0.202E+02 -.261E+02   0.491E+02 -.225E+02 0.297E+02   -.560E+01 0.234E+01 -.369E+01
   -.202E+02 -.261E+02 0.436E+02   0.225E+02 0.297E+02 -.491E+02   -.234E+01 -.369E+01 0.560E+01
   0.261E+02 0.436E+02 0.202E+02   -.297E+02 -.491E+02 -.225E+02   0.369E+01 0.561E+01 0.234E+01
   0.202E+02 0.261E+02 0.436E+02   -.225E+02 -.297E+02 -.491E+02   0.234E+01 0.369E+01 0.560E+01
   -.261E+02 -.436E+02 0.202E+02   0.297E+02 0.491E+02 -.225E+02   -.369E+01 -.561E+01 0.234E+01
   -.261E+02 0.436E+02 -.202E+02   0.297E+02 -.491E+02 0.225E+02   -.369E+01 0.561E+01 -.234E+01
   0.436E+02 0.202E+02 0.261E+02   -.491E+02 -.225E+02 -.297E+02   0.560E+01 0.234E+01 0.369E+01
   0.202E+02 -.261E+02 -.436E+02   -.225E+02 0.297E+02 0.491E+02   0.234E+01 -.369E+01 -.560E+01
   0.436E+02 -.202E+02 -.261E+02   -.491E+02 0.225E+02 0.297E+02   0.560E+01 -.234E+01 -.369E+01
 -----------------------------------------------------------------------------------------------
   0.156E-02 0.105E-03 0.107E-03   0.284E-13 -.355E-14 0.320E-13   -.157E-02 -.102E-03 -.112E-03


 POSITION                                       TOTAL-FORCE (eV/Angst)
 -----------------------------------------------------------------------------------
      1.04471      1.04468      1.04473         0.036864      0.033516      0.037557
      3.60996      1.52057      4.08578         0.036869     -0.033432     -0.037664
      4.08581      3.60993      1.52052        -0.037696      0.033429     -0.036817
      1.52056      4.08583      3.60998        -0.037529     -0.033611      0.036813
      1.86198      1.39632      0.53263        -0.059481     -0.003571      0.057994
      1.39638      0.53260      1.86208        -0.004677      0.059191     -0.061566
      0.53257      1.86191      1.39634         0.057697     -0.058711     -0.003602
      4.42723      1.16894      4.59787        -0.059446      0.003550     -0.057967
      3.96164      2.03265      3.26842        -0.004711     -0.059234      0.061645
      3.09782      0.70334      3.73416         0.057688      0.058692      0.003600
      3.73412      3.09786      0.70317         0.004661      0.059090      0.061359
      4.59793      4.42716      1.16892        -0.057394     -0.058285      0.003362
      2.03269      3.26859      3.96158        -0.057470      0.058419     -0.003418
      0.70327      3.73419      3.09788         0.059980      0.003795      0.058263
      1.16888      4.59790      4.42733         0.004613     -0.059034     -0.061277
      3.26852      3.96157      2.03262         0.060031     -0.003802     -0.058285
 -----------------------------------------------------------------------------------
    total drift:                               -0.000012      0.000003     -0.000004


--------------------------------------------------------------------------------------------------------



  FREE ENERGIE OF THE ION-ELECTRON SYSTEM (eV)
  ---------------------------------------------------
  free  energy   TOTEN  =       -79.99975598 eV

  energy  without entropy=      -79.99975598  energy(sigma->0) =      -79.99975598



--------------------------------------------------------------------------------------------------------


    POTLOK:  cpu time      0.0343: real time      0.0343


--------------------------------------------------------------------------------------------------------


 stress matrix after NEB project (eV)
     -1.51444     -0.00000     -0.00000
     -0.00000     -1.51444     -0.00000
     -0.00000     -0.00000     -1.51439
  FORCES: max atom, RMS     0.085621    0.078902
  FORCE total and by dimension    0.315609    0.061645
  Stress total and by dimension    2.623058    1.514440
     LOOP+:  cpu time     15.7984: real time     16.0371
    4ORBIT:  cpu time      0.0000: real time      0.0000

 total amount of memory used by VASP MPI-rank0    41338. kBytes
=======================================================================

   base      :      30000. kBytes
   nonl-proj :       2728. kBytes
   fftplans  :        601. kBytes
   grid      :        896. kBytes
   one-center:          3. kBytes
   wavefun   :       7110. kBytes

  
  
 General timing and accounting informations for this job:
 ========================================================
  
                  Total CPU time used (sec):       22.753
                            User time (sec):       21.251
                          System time (sec):        1.502
                         Elapsed time (sec):       26.186
  
                   Maximum memory used (kb):      227692.
                   Average memory used (kb):          N/A
  
                          Minor page faults:        23718
                          Major page faults:          431
                 Voluntary context switches:         3164
