 vasp.6.4.1 05Apr23 (build Jun  6 2023 14:36:51) complex                         
 executed on        HPECrayEX_GCC date 2024.08.20  14:20:27
 running  256 mpi-ranks, with    1 threads/rank, on    2 nodes
 distrk:  each k-point on  256 cores,    1 groups
 distr:  one band on NCORE=   2 cores,  128 groups


--------------------------------------------------------------------------------------------------------


 INCAR:
   ALGO = Conjugate
   NCORE = 2
   PREC = Accurate
   EDIFF = 1E-7
   ENCUT = 1000
   ISMEAR = 0
   SIGMA = 0.01
   ISIF = 0
   SYMPREC = 1E-7
   GGA = B5
   ALDAX = 1.0
   AGGAX = 1.0
   AGGAC = 1.0
   ALDAC = 0.0
   IVDW = 11
   VDW_S8 = 1.682
   VDW_SR = 1.094
   LWAVE = .FALSE.
   LCHARGE = .FALSE.
   LWAVE = .FALSE.
   LCHARGE = .FALSE.

 POTCAR:    PAW_PBE N_h 06Feb2004                 
 POTCAR:    PAW_PBE H_h 06Feb2004                 
 POTCAR:    PAW_PBE N_h 06Feb2004                 
   VRHFIN =N: s2p3                                                                                  
   LEXCH  = PE                                                                                      
   EATOM  =   264.5486 eV,   19.4438 Ry                                                             
                                                                                                    
   TITEL  = PAW_PBE N_h 06Feb2004                                                                   
   LULTRA =        F    use ultrasoft PP ?                                                          
   IUNSCR =        1    unscreen: 0-lin 1-nonlin 2-no                                               
   RPACOR =    0.800    partial core radius                                                         
   POMASS =   14.001; ZVAL   =    5.000    mass and valenz                                          
   RCORE  =    1.100    outmost cutoff radius                                                       
   RWIGS  =    1.480; RWIGS  =    0.783    wigner-seitz radius (au A)                               
   ENMAX  =  700.000; ENMIN  =  500.000 eV                                                          
   ICORE  =        2    local potential                                                             
   LCOR   =        T    correct aug charges                                                         
   LPAW   =        T    paw PP                                                                      
   EAUG   =  904.640                                                                                
   DEXC   =    0.000                                                                                
   RMAX   =    1.127    core radius for proj-oper                                                   
   RAUG   =    1.300    factor for augmentation sphere                                              
   RDEP   =    1.115    radius for radial grids                                                     
   RDEPT  =    1.106    core radius for aug-charge                                                  
                                                                                                    
   Atomic configuration                                                                             
    4 entries                                                                                       
     n  l   j            E        occ.                                                              
     1  0  0.50      -384.7179   2.0000                                                             
     2  0  0.50       -18.5828   2.0000                                                             
     2  1  0.50        -7.0898   3.0000                                                             
     3  2  1.50        -6.8029   0.0000                                                             
   Description                                                                                      
     l       E           TYP  RCUT    TYP  RCUT                                                     
     0    -18.5828117     23  1.100                                                                 
     0    -15.0750597     23  1.100                                                                 
     1     -7.0897851     23  1.100                                                                 
     1     -1.9663412     23  1.100                                                                 
     2     -6.8029130      7  1.100                                                                 
  local pseudopotential read in
  partial core-charges read in
  partial kinetic energy density read in
  kinetic energy density of atom read in
  atomic valenz-charges read in
  non local Contribution for L=           0  read in
    real space projection operators read in
  non local Contribution for L=           0  read in
    real space projection operators read in
  non local Contribution for L=           1  read in
    real space projection operators read in
  non local Contribution for L=           1  read in
    real space projection operators read in
    PAW grid and wavefunctions read in

   number of l-projection  operators is LMAX  =           4
   number of lm-projection operators is LMMAX =           8

 POTCAR:    PAW_PBE H_h 06Feb2004                 
   VRHFIN =H: ultrasoft test                                                                        
   LEXCH  = PE                                                                                      
   EATOM  =    12.4884 eV,    0.9179 Ry                                                             
                                                                                                    
   TITEL  = PAW_PBE H_h 06Feb2004                                                                   
   LULTRA =        F    use ultrasoft PP ?                                                          
   IUNSCR =        0    unscreen: 0-lin 1-nonlin 2-no                                               
   RPACOR =    0.000    partial core radius                                                         
   POMASS =    1.000; ZVAL   =    1.000    mass and valenz                                          
   RCORE  =    0.800    outmost cutoff radius                                                       
   RWIGS  =    0.700; RWIGS  =    0.370    wigner-seitz radius (au A)                               
   ENMAX  =  700.000; ENMIN  =  350.000 eV                                                          
   RCLOC  =    0.701    cutoff for local pot                                                        
   LCOR   =        T    correct aug charges                                                         
   LPAW   =        T    paw PP                                                                      
   EAUG   = 1000.000                                                                                
   RMAX   =    0.819    core radius for proj-oper                                                   
   RAUG   =    1.000    factor for augmentation sphere                                              
   RDEP   =    0.817    radius for radial grids                                                     
   RDEPT  =    0.817    core radius for aug-charge                                                  
                                                                                                    
   Atomic configuration                                                                             
    2 entries                                                                                       
     n  l   j            E        occ.                                                              
     1  0  0.50        -6.4927   1.0000                                                             
     2  1  0.50        -3.4015   0.0000                                                             
   Description                                                                                      
     l       E           TYP  RCUT    TYP  RCUT                                                     
     0     -6.4927493     23  0.800                                                                 
     0      6.8029130     23  0.800                                                                 
     1     -6.8029130     23  0.800                                                                 
  local pseudopotential read in
  atomic valenz-charges read in
  non local Contribution for L=           0  read in
    real space projection operators read in
  non local Contribution for L=           0  read in
    real space projection operators read in
  non local Contribution for L=           1  read in
    real space projection operators read in
    PAW grid and wavefunctions read in

   number of l-projection  operators is LMAX  =           3
   number of lm-projection operators is LMMAX =           5

 -----------------------------------------------------------------------------
|                                                                             |
|               ----> ADVICE to this user running VASP <----                  |
|                                                                             |
|     You enforced a specific xc type in the INCAR file but a different       |
|     type was found in the POTCAR file.                                      |
|     I HOPE YOU KNOW WHAT YOU ARE DOING!                                     |
|                                                                             |
 -----------------------------------------------------------------------------

  PAW_PBE N_h 06Feb2004                 :
 energy of atom  1       EATOM= -264.5486
 kinetic energy error for atom=    0.0081 (will be added to EATOM!!)
  PAW_PBE H_h 06Feb2004                 :
 energy of atom  2       EATOM=  -12.4884
 kinetic energy error for atom=    0.0006 (will be added to EATOM!!)


 POSCAR:  N  H
  positions in cartesian coordinates
  No initial velocities read in
 exchange correlation table for  LEXCH =       12
   RHO(1)=    0.500       N(1)  =     2000
   RHO(2)=  100.500       N(2)  =     4000

 VTST: version 4.1, (05/19/21)

 CHAIN: initializing optimizer
 
 OPT: Using VASP Dynamics algorithm
 CHAIN: Read ICHAIN            0

 POSCAR:  N  H
  positions in cartesian coordinates
  No initial velocities read in



--------------------------------------------------------------------------------------------------------


 ion  position               nearest neighbor table
   1  0.204  0.204  0.204-   7 1.03   5 1.03   6 1.03
   2  0.704  0.296  0.796-  10 1.03   8 1.03   9 1.03
   3  0.796  0.704  0.296-  12 1.03  16 1.03  11 1.03
   4  0.296  0.796  0.704-  13 1.03  14 1.03  15 1.03
   5  0.363  0.272  0.104-   1 1.03
   6  0.272  0.104  0.363-   1 1.03
   7  0.104  0.363  0.272-   1 1.03
   8  0.863  0.228  0.896-   2 1.03
   9  0.772  0.396  0.637-   2 1.03
  10  0.604  0.137  0.728-   2 1.03
  11  0.728  0.604  0.137-   3 1.03
  12  0.896  0.863  0.228-   3 1.03
  13  0.396  0.637  0.772-   4 1.03
  14  0.137  0.728  0.604-   4 1.03
  15  0.228  0.896  0.863-   4 1.03
  16  0.637  0.772  0.396-   3 1.03

  LATTYP: Found a simple cubic cell.
 ALAT       =     5.1305000000
  
  Lattice vectors:
  
 A1 = (   5.1305000000,   0.0000000000,   0.0000000000)
 A2 = (   0.0000000000,   5.1305000000,   0.0000000000)
 A3 = (   0.0000000000,   0.0000000000,   5.1305000000)


Analysis of symmetry for initial positions (statically):
=====================================================================
 Subroutine PRICEL returns:
 Original cell was already a primitive cell.
 

 Routine SETGRP: Setting up the symmetry group for a 
 simple cubic supercell.


 Subroutine GETGRP returns: Found  1 space group operations
 (whereof  1 operations were pure point group operations)
 out of a pool of 48 trial point group operations.


The static configuration has the point symmetry C_1 .


Analysis of symmetry for dynamics (positions and initial velocities):
=====================================================================
 Subroutine PRICEL returns:
 Original cell was already a primitive cell.
 

 Routine SETGRP: Setting up the symmetry group for a 
 simple cubic supercell.


 Subroutine GETGRP returns: Found  1 space group operations
 (whereof  1 operations were pure point group operations)
 out of a pool of 48 trial point group operations.


The dynamic configuration has the point symmetry C_1 .


 Subroutine INISYM returns: Found  1 space group operations
 (whereof  1 operations are pure point group operations),
 and found     1 'primitive' translations


----------------------------------------------------------------------------------------

                                     Primitive cell                                     

  volume of cell :     135.0452

  direct lattice vectors                    reciprocal lattice vectors
     5.130500000  0.000000000  0.000000000     0.194912777  0.000000000  0.000000000
     0.000000000  5.130500000  0.000000000     0.000000000  0.194912777  0.000000000
     0.000000000  0.000000000  5.130500000     0.000000000  0.000000000  0.194912777

  length of vectors
     5.130500000  5.130500000  5.130500000     0.194912777  0.194912777  0.194912777

  position of ions in fractional coordinates (direct lattice)
     0.203627113  0.203621431  0.203630403
     0.703627029  0.296379224  0.796369782
     0.796376204  0.703621086  0.296368680
     0.296376360  0.796379870  0.703631030
     0.362924549  0.272160065  0.103816846
     0.272173110  0.103811414  0.362943826
     0.103803989  0.362910930  0.272163643
     0.862924359  0.227840758  0.896183154
     0.772173318  0.396189393  0.637055963
     0.603804049  0.137089872  0.727836227
     0.727828470  0.603811815  0.137056818
     0.896196011  0.862910103  0.227837673
     0.396196503  0.637090091  0.772162233
     0.137076124  0.727840763  0.603815983
     0.227828970  0.896188586  0.862942724
     0.637075505  0.772159890  0.396183698

  ion indices of the primitive-cell ions
   primitive index   ion index
                 1           1
                 2           2
                 3           3
                 4           4
                 5           5
                 6           6
                 7           7
                 8           8
                 9           9
                10          10
                11          11
                12          12
                13          13
                14          14
                15          15
                16          16

----------------------------------------------------------------------------------------



 KPOINTS: auto                                    

Automatic generation of k-mesh.
 Grid dimensions read from file:
 generate k-points for:    5    5    5

 Generating k-lattice:

  Cartesian coordinates                     Fractional coordinates (reciprocal lattice)
     0.038982555  0.000000000  0.000000000     0.200000000  0.000000000  0.000000000
     0.000000000  0.038982555  0.000000000     0.000000000  0.200000000  0.000000000
     0.000000000  0.000000000  0.038982555     0.000000000  0.000000000  0.200000000

  Length of vectors
     0.038982555  0.038982555  0.038982555

  Shift w.r.t. Gamma in fractional coordinates (k-lattice)
     0.000000000  0.000000000  0.000000000

 
 Subroutine IBZKPT returns following result:
 ===========================================
 
 Found     63 irreducible k-points:
 
 Following reciprocal coordinates:
            Coordinates               Weight
  0.000000  0.000000  0.000000      1.000000
  0.200000  0.000000  0.000000      2.000000
  0.000000  0.200000  0.000000      2.000000
  0.000000  0.000000  0.200000      2.000000
  0.400000  0.000000  0.000000      2.000000
  0.000000  0.400000  0.000000      2.000000
  0.000000  0.000000  0.400000      2.000000
  0.200000  0.200000  0.000000      2.000000
  0.000000  0.200000  0.200000      2.000000
  0.200000  0.000000  0.200000      2.000000
 -0.200000  0.200000  0.000000      2.000000
 -0.200000  0.000000  0.200000      2.000000
  0.000000 -0.200000  0.200000      2.000000
  0.400000  0.200000  0.000000      2.000000
  0.000000  0.400000  0.200000      2.000000
  0.200000  0.000000  0.400000      2.000000
 -0.200000  0.400000  0.000000      2.000000
 -0.400000  0.000000  0.200000      2.000000
  0.000000  0.200000  0.400000      2.000000
  0.000000 -0.400000  0.200000      2.000000
 -0.200000  0.000000  0.400000      2.000000
  0.400000  0.000000  0.200000      2.000000
  0.000000 -0.200000  0.400000      2.000000
  0.400000 -0.200000  0.000000      2.000000
  0.200000  0.400000  0.000000      2.000000
  0.400000  0.400000  0.000000      2.000000
  0.000000  0.400000  0.400000      2.000000
  0.400000  0.000000  0.400000      2.000000
 -0.400000  0.400000  0.000000      2.000000
 -0.400000  0.000000  0.400000      2.000000
  0.000000 -0.400000  0.400000      2.000000
  0.200000  0.200000  0.200000      2.000000
 -0.200000  0.200000  0.200000      2.000000
 -0.200000 -0.200000  0.200000      2.000000
  0.200000 -0.200000  0.200000      2.000000
  0.400000  0.200000  0.200000      2.000000
  0.200000  0.400000  0.200000      2.000000
  0.200000  0.200000  0.400000      2.000000
 -0.200000  0.400000  0.200000      2.000000
 -0.400000  0.200000  0.200000      2.000000
 -0.200000  0.200000  0.400000      2.000000
 -0.400000 -0.200000  0.200000      2.000000
 -0.200000 -0.400000  0.200000      2.000000
 -0.200000 -0.200000  0.400000      2.000000
  0.200000 -0.400000  0.200000      2.000000
  0.400000 -0.200000  0.200000      2.000000
  0.200000 -0.200000  0.400000      2.000000
  0.400000  0.400000  0.200000      2.000000
  0.200000  0.400000  0.400000      2.000000
  0.400000  0.200000  0.400000      2.000000
 -0.400000  0.400000  0.200000      2.000000
 -0.400000  0.200000  0.400000      2.000000
 -0.200000  0.400000  0.400000      2.000000
 -0.400000 -0.400000  0.200000      2.000000
 -0.200000 -0.400000  0.400000      2.000000
 -0.400000 -0.200000  0.400000      2.000000
  0.400000 -0.400000  0.200000      2.000000
  0.400000 -0.200000  0.400000      2.000000
  0.200000 -0.400000  0.400000      2.000000
  0.400000  0.400000  0.400000      2.000000
 -0.400000  0.400000  0.400000      2.000000
 -0.400000 -0.400000  0.400000      2.000000
  0.400000 -0.400000  0.400000      2.000000
 
 Following cartesian coordinates:
            Coordinates               Weight
  0.000000  0.000000  0.000000      1.000000
  0.038983  0.000000  0.000000      2.000000
  0.000000  0.038983  0.000000      2.000000
  0.000000  0.000000  0.038983      2.000000
  0.077965  0.000000  0.000000      2.000000
  0.000000  0.077965  0.000000      2.000000
  0.000000  0.000000  0.077965      2.000000
  0.038983  0.038983  0.000000      2.000000
  0.000000  0.038983  0.038983      2.000000
  0.038983  0.000000  0.038983      2.000000
 -0.038983  0.038983  0.000000      2.000000
 -0.038983  0.000000  0.038983      2.000000
  0.000000 -0.038983  0.038983      2.000000
  0.077965  0.038983  0.000000      2.000000
  0.000000  0.077965  0.038983      2.000000
  0.038983  0.000000  0.077965      2.000000
 -0.038983  0.077965  0.000000      2.000000
 -0.077965  0.000000  0.038983      2.000000
  0.000000  0.038983  0.077965      2.000000
  0.000000 -0.077965  0.038983      2.000000
 -0.038983  0.000000  0.077965      2.000000
  0.077965  0.000000  0.038983      2.000000
  0.000000 -0.038983  0.077965      2.000000
  0.077965 -0.038983  0.000000      2.000000
  0.038983  0.077965  0.000000      2.000000
  0.077965  0.077965  0.000000      2.000000
  0.000000  0.077965  0.077965      2.000000
  0.077965  0.000000  0.077965      2.000000
 -0.077965  0.077965  0.000000      2.000000
 -0.077965  0.000000  0.077965      2.000000
  0.000000 -0.077965  0.077965      2.000000
  0.038983  0.038983  0.038983      2.000000
 -0.038983  0.038983  0.038983      2.000000
 -0.038983 -0.038983  0.038983      2.000000
  0.038983 -0.038983  0.038983      2.000000
  0.077965  0.038983  0.038983      2.000000
  0.038983  0.077965  0.038983      2.000000
  0.038983  0.038983  0.077965      2.000000
 -0.038983  0.077965  0.038983      2.000000
 -0.077965  0.038983  0.038983      2.000000
 -0.038983  0.038983  0.077965      2.000000
 -0.077965 -0.038983  0.038983      2.000000
 -0.038983 -0.077965  0.038983      2.000000
 -0.038983 -0.038983  0.077965      2.000000
  0.038983 -0.077965  0.038983      2.000000
  0.077965 -0.038983  0.038983      2.000000
  0.038983 -0.038983  0.077965      2.000000
  0.077965  0.077965  0.038983      2.000000
  0.038983  0.077965  0.077965      2.000000
  0.077965  0.038983  0.077965      2.000000
 -0.077965  0.077965  0.038983      2.000000
 -0.077965  0.038983  0.077965      2.000000
 -0.038983  0.077965  0.077965      2.000000
 -0.077965 -0.077965  0.038983      2.000000
 -0.038983 -0.077965  0.077965      2.000000
 -0.077965 -0.038983  0.077965      2.000000
  0.077965 -0.077965  0.038983      2.000000
  0.077965 -0.038983  0.077965      2.000000
  0.038983 -0.077965  0.077965      2.000000
  0.077965  0.077965  0.077965      2.000000
 -0.077965  0.077965  0.077965      2.000000
 -0.077965 -0.077965  0.077965      2.000000
  0.077965 -0.077965  0.077965      2.000000
 


--------------------------------------------------------------------------------------------------------




 Dimension of arrays:
   k-points           NKPTS =     63   k-points in BZ     NKDIM =     63   number of bands    NBANDS=    128
   number of dos      NEDOS =    301   number of ions     NIONS =     16
   non local maximal  LDIM  =      4   non local SUM 2l+1 LMDIM =      8
   total plane-waves  NPLWV = 157464
   max r-space proj   IRMAX =      1   max aug-charges    IRDMAX=   8480
   dimension x,y,z NGX =    54 NGY =   54 NGZ =   54
   dimension x,y,z NGXF=   108 NGYF=  108 NGZF=  108
   support grid    NGXF=   108 NGYF=  108 NGZF=  108
   ions per type =               4  12
   NGX,Y,Z   is equivalent  to a cutoff of  17.50, 17.50, 17.50 a.u.
   NGXF,Y,Z  is equivalent  to a cutoff of  35.00, 35.00, 35.00 a.u.

 SYSTEM =  unknown system                          
 POSCAR =   N  H                                   

 Startparameter for this run:
   NWRITE =      2    write-flag & timer
   PREC   = accura    normal or accurate (medium, high low for compatibility)
   ISTART =      0    job   : 0-new  1-cont  2-samecut
   ICHARG =      2    charge: 1-file 2-atom 10-const
   ISPIN  =      1    spin polarized calculation?
   LNONCOLLINEAR =      F non collinear calculations
   LSORBIT =      F    spin-orbit coupling
   INIWAV =      1    electr: 0-lowe 1-rand  2-diag
   LASPH  =      F    aspherical Exc in radial PAW
 Electronic Relaxation 1
   ENCUT  = 1000.0 eV  73.50 Ry    8.57 a.u.  13.23 13.23 13.23*2*pi/ulx,y,z
   ENINI  = 1000.0     initial cutoff
   ENAUG  = 1000.0 eV  augmentation charge cutoff
   NELM   =     60;   NELMIN=  2; NELMDL= -5     # of ELM steps 
   EDIFF  = 0.1E-06   stopping-criterion for ELM
   LREAL  =      F    real-space projection
   NLSPLINE    = F    spline interpolate recip. space projectors
   LCOMPAT=      F    compatible to vasp.4.4
   GGA_COMPAT  = T    GGA compatible to vasp.4.4-vasp.4.6
   LMAXPAW     = -100 max onsite density
   LMAXMIX     =    2 max onsite mixed and CHGCAR
   VOSKOWN=      0    Vosko Wilk Nusair interpolation
   ROPT   =    0.00000   0.00000
 Ionic relaxation
   EDIFFG = 0.1E-05   stopping-criterion for IOM
   NSW    =      0    number of steps for IOM
   NBLOCK =      1;   KBLOCK =      1    inner block; outer block 
   IBRION =     -1    ionic relax: 0-MD 1-quasi-New 2-CG
   NFREE  =      0    steps in history (QN), initial steepest desc. (CG)
   ISIF   =      0    stress and relaxation
   IWAVPR =     10    prediction:  0-non 1-charg 2-wave 3-comb
   ISYM   =      2    0-nonsym 1-usesym 2-fastsym
   LCORR  =      T    Harris-Foulkes like correction to forces

   POTIM  = 0.5000    time-step for ionic-motion
   TEIN   =    0.0    initial temperature
   TEBEG  =    0.0;   TEEND  =   0.0 temperature during run
   SMASS  =  -3.00    Nose mass-parameter (am)
   estimated Nose-frequenzy (Omega)   =  0.10E-29 period in steps = 0.13E+47 mass=  -0.602E-27a.u.
   SCALEE = 1.0000    scale energy and forces
   NPACO  =    256;   APACO  = 10.0  distance and # of slots for P.C.
   PSTRESS=    0.0 pullay stress

  Mass of Ions in am
   POMASS =  14.00  1.00
  Ionic Valenz
   ZVAL   =   5.00  1.00
  Atomic Wigner-Seitz radii
   RWIGS  =  -1.00 -1.00
  virtual crystal weights 
   VCA    =   1.00  1.00
   NELECT =      32.0000    total number of electrons
   NUPDOWN=      -1.0000    fix difference up-down

 DOS related values:
   EMIN   =  10.00;   EMAX   =-10.00  energy-range for DOS
   EFERMI =   0.00;   METHOD = LEGACY      
   ISMEAR =     0;   SIGMA  =   0.01  broadening in eV -4-tet -1-fermi 0-gaus

 Electronic relaxation 2 (details)
   IALGO  =     58    algorithm
   LDIAG  =      T    sub-space diagonalisation (order eigenvalues)
   LSUBROT=      F    optimize rotation matrix (better conditioning)
   TURBO    =      0    0=normal 1=particle mesh
   IRESTART =      0    0=no restart 2=restart with 2 vectors
   NREBOOT  =      0    no. of reboots
   NMIN     =      0    reboot dimension
   EREF     =   0.00    reference energy to select bands
   IMIX   =      4    mixing-type and parameters
     AMIX     =   0.40;   BMIX     =  1.00
     AMIX_MAG =   1.60;   BMIX_MAG =  1.00
     AMIN     =   0.10
     WC   =   100.;   INIMIX=   1;  MIXPRE=   1;  MAXMIX= -45

 Intra band minimization:
   WEIMIN = 0.0000     energy-eigenvalue tresh-hold
   EBREAK =  0.20E-09  absolut break condition
   DEPER  =   0.30     relativ break condition  

   TIME   =   0.40     timestep for ELM

  volume/ion in A,a.u.               =       8.44        56.96
  Fermi-wavevector in a.u.,A,eV,Ry     =   1.013052  1.914391 13.963314  1.026275
  Thomas-Fermi vector in A             =   2.146198

 Write flags
   LWAVE        =      F    write WAVECAR
   LDOWNSAMPLE  =      F    k-point downsampling of WAVECAR
   LCHARG       =      T    write CHGCAR
   LVTOT        =      F    write LOCPOT, total local potential
   LVHAR        =      F    write LOCPOT, Hartree potential only
   LELF         =      F    write electronic localiz. function (ELF)
   LORBIT       =      0    0 simple, 1 ext, 2 COOP (PROOUT), +10 PAW based schemes


 Dipole corrections
   LMONO  =      F    monopole corrections only (constant potential shift)
   LDIPOL =      F    correct potential (dipole corrections)
   IDIPOL =      0    1-x, 2-y, 3-z, 4-all directions 
   EPSILON=  1.0000000 bulk dielectric constant

 Exchange correlation treatment:
   GGA     =    B5    GGA type
   LEXCH   =    12    internal setting for exchange type
   LIBXC   =     F    Libxc                    
   VOSKOWN =     0    Vosko Wilk Nusair interpolation
   LHFCALC =     F    Hartree Fock is set to
   LHFONE  =     F    Hartree Fock one center treatment
   AEXX    =    0.0000 exact exchange contribution

 Linear response parameters
   LEPSILON=     F    determine dielectric tensor
   LRPA    =     F    only Hartree local field effects (RPA)
   LNABLA  =     F    use nabla operator in PAW spheres
   LVEL    =     F    velocity operator in full k-point grid
   CSHIFT  =0.1000    complex shift for real part using Kramers Kronig
   OMEGAMAX=  -1.0    maximum frequency
   DEG_THRESHOLD= 0.2000000E-02 threshold for treating states as degnerate
   RTIME   =   -0.100 relaxation time in fs
  (WPLASMAI=    0.000 imaginary part of plasma frequency in eV, 0.658/RTIME)
   DFIELD  = 0.0000000 0.0000000 0.0000000 field for delta impulse in time

  Optional k-point grid parameters
   LKPOINTS_OPT  =     F    use optional k-point grid
   KPOINTS_OPT_MODE=     1    mode for optional k-point grid

 Orbital magnetization related:
   ORBITALMAG=     F  switch on orbital magnetization
   LCHIMAG   =     F  perturbation theory with respect to B field
   DQ        =  0.001000  dq finite difference perturbation B field
   LLRAUG    =     F  two centre corrections for induced B field
   LBONE     =     F  B-component reconstruction in AE one-centre
   LVGVCALC  =     T  calculate vGv susceptibility
   LVGVAPPL  =     F  apply vGv susceptibility instead of pGv for G=0

 Random number generation:
   RANDOM_GENERATOR = DEFAULT
   PCG_SEED         = not used


--------------------------------------------------------------------------------------------------------


 Static calculation
 charge density and potential will be updated during run
 non-spin polarized calculation
 Conjugate gradient for all bands (Freysoldt, et al. PRB 79, 241103 (2009))
 preconditioned conjugated gradient                                        
 perform sub-space diagonalisation
    before iterative eigenvector-optimisation
 modified Broyden-mixing scheme, WC =      100.0
 initial mixing is a Kerker type mixing with AMIX =  0.4000 and BMIX =      1.0000
 Hartree-type preconditioning will be used
 using additional bands          112
 reciprocal scheme for non local part
 use partial core corrections
 no Harris-corrections to forces 
 use gradient corrections 
 use of overlap-Matrix (Vanderbilt PP)
 Gauss-broadening in eV      SIGMA  =   0.01


--------------------------------------------------------------------------------------------------------


  energy-cutoff  :     1000.00
  volume of cell :      135.05
      direct lattice vectors                 reciprocal lattice vectors
     5.130500000  0.000000000  0.000000000     0.194912777  0.000000000  0.000000000
     0.000000000  5.130500000  0.000000000     0.000000000  0.194912777  0.000000000
     0.000000000  0.000000000  5.130500000     0.000000000  0.000000000  0.194912777

  length of vectors
     5.130500000  5.130500000  5.130500000     0.194912777  0.194912777  0.194912777



 k-points in units of 2pi/SCALE and weight: auto                                    
   0.00000000  0.00000000  0.00000000       0.008
   0.03898256  0.00000000  0.00000000       0.016
   0.00000000  0.03898256  0.00000000       0.016
   0.00000000  0.00000000  0.03898256       0.016
   0.07796511  0.00000000  0.00000000       0.016
   0.00000000  0.07796511  0.00000000       0.016
   0.00000000  0.00000000  0.07796511       0.016
   0.03898256  0.03898256  0.00000000       0.016
   0.00000000  0.03898256  0.03898256       0.016
   0.03898256  0.00000000  0.03898256       0.016
  -0.03898256  0.03898256  0.00000000       0.016
  -0.03898256  0.00000000  0.03898256       0.016
   0.00000000 -0.03898256  0.03898256       0.016
   0.07796511  0.03898256  0.00000000       0.016
   0.00000000  0.07796511  0.03898256       0.016
   0.03898256  0.00000000  0.07796511       0.016
  -0.03898256  0.07796511  0.00000000       0.016
  -0.07796511  0.00000000  0.03898256       0.016
   0.00000000  0.03898256  0.07796511       0.016
   0.00000000 -0.07796511  0.03898256       0.016
  -0.03898256  0.00000000  0.07796511       0.016
   0.07796511  0.00000000  0.03898256       0.016
   0.00000000 -0.03898256  0.07796511       0.016
   0.07796511 -0.03898256  0.00000000       0.016
   0.03898256  0.07796511  0.00000000       0.016
   0.07796511  0.07796511  0.00000000       0.016
   0.00000000  0.07796511  0.07796511       0.016
   0.07796511  0.00000000  0.07796511       0.016
  -0.07796511  0.07796511  0.00000000       0.016
  -0.07796511  0.00000000  0.07796511       0.016
   0.00000000 -0.07796511  0.07796511       0.016
   0.03898256  0.03898256  0.03898256       0.016
  -0.03898256  0.03898256  0.03898256       0.016
  -0.03898256 -0.03898256  0.03898256       0.016
   0.03898256 -0.03898256  0.03898256       0.016
   0.07796511  0.03898256  0.03898256       0.016
   0.03898256  0.07796511  0.03898256       0.016
   0.03898256  0.03898256  0.07796511       0.016
  -0.03898256  0.07796511  0.03898256       0.016
  -0.07796511  0.03898256  0.03898256       0.016
  -0.03898256  0.03898256  0.07796511       0.016
  -0.07796511 -0.03898256  0.03898256       0.016
  -0.03898256 -0.07796511  0.03898256       0.016
  -0.03898256 -0.03898256  0.07796511       0.016
   0.03898256 -0.07796511  0.03898256       0.016
   0.07796511 -0.03898256  0.03898256       0.016
   0.03898256 -0.03898256  0.07796511       0.016
   0.07796511  0.07796511  0.03898256       0.016
   0.03898256  0.07796511  0.07796511       0.016
   0.07796511  0.03898256  0.07796511       0.016
  -0.07796511  0.07796511  0.03898256       0.016
  -0.07796511  0.03898256  0.07796511       0.016
  -0.03898256  0.07796511  0.07796511       0.016
  -0.07796511 -0.07796511  0.03898256       0.016
  -0.03898256 -0.07796511  0.07796511       0.016
  -0.07796511 -0.03898256  0.07796511       0.016
   0.07796511 -0.07796511  0.03898256       0.016
   0.07796511 -0.03898256  0.07796511       0.016
   0.03898256 -0.07796511  0.07796511       0.016
   0.07796511  0.07796511  0.07796511       0.016
  -0.07796511  0.07796511  0.07796511       0.016
  -0.07796511 -0.07796511  0.07796511       0.016
   0.07796511 -0.07796511  0.07796511       0.016

 k-points in reciprocal lattice and weights: auto                                    
   0.00000000  0.00000000  0.00000000       0.008
   0.20000000  0.00000000  0.00000000       0.016
   0.00000000  0.20000000  0.00000000       0.016
   0.00000000  0.00000000  0.20000000       0.016
   0.40000000  0.00000000  0.00000000       0.016
   0.00000000  0.40000000  0.00000000       0.016
   0.00000000  0.00000000  0.40000000       0.016
   0.20000000  0.20000000  0.00000000       0.016
   0.00000000  0.20000000  0.20000000       0.016
   0.20000000  0.00000000  0.20000000       0.016
  -0.20000000  0.20000000  0.00000000       0.016
  -0.20000000  0.00000000  0.20000000       0.016
   0.00000000 -0.20000000  0.20000000       0.016
   0.40000000  0.20000000  0.00000000       0.016
   0.00000000  0.40000000  0.20000000       0.016
   0.20000000  0.00000000  0.40000000       0.016
  -0.20000000  0.40000000  0.00000000       0.016
  -0.40000000  0.00000000  0.20000000       0.016
   0.00000000  0.20000000  0.40000000       0.016
   0.00000000 -0.40000000  0.20000000       0.016
  -0.20000000  0.00000000  0.40000000       0.016
   0.40000000  0.00000000  0.20000000       0.016
   0.00000000 -0.20000000  0.40000000       0.016
   0.40000000 -0.20000000  0.00000000       0.016
   0.20000000  0.40000000  0.00000000       0.016
   0.40000000  0.40000000  0.00000000       0.016
   0.00000000  0.40000000  0.40000000       0.016
   0.40000000  0.00000000  0.40000000       0.016
  -0.40000000  0.40000000  0.00000000       0.016
  -0.40000000  0.00000000  0.40000000       0.016
   0.00000000 -0.40000000  0.40000000       0.016
   0.20000000  0.20000000  0.20000000       0.016
  -0.20000000  0.20000000  0.20000000       0.016
  -0.20000000 -0.20000000  0.20000000       0.016
   0.20000000 -0.20000000  0.20000000       0.016
   0.40000000  0.20000000  0.20000000       0.016
   0.20000000  0.40000000  0.20000000       0.016
   0.20000000  0.20000000  0.40000000       0.016
  -0.20000000  0.40000000  0.20000000       0.016
  -0.40000000  0.20000000  0.20000000       0.016
  -0.20000000  0.20000000  0.40000000       0.016
  -0.40000000 -0.20000000  0.20000000       0.016
  -0.20000000 -0.40000000  0.20000000       0.016
  -0.20000000 -0.20000000  0.40000000       0.016
   0.20000000 -0.40000000  0.20000000       0.016
   0.40000000 -0.20000000  0.20000000       0.016
   0.20000000 -0.20000000  0.40000000       0.016
   0.40000000  0.40000000  0.20000000       0.016
   0.20000000  0.40000000  0.40000000       0.016
   0.40000000  0.20000000  0.40000000       0.016
  -0.40000000  0.40000000  0.20000000       0.016
  -0.40000000  0.20000000  0.40000000       0.016
  -0.20000000  0.40000000  0.40000000       0.016
  -0.40000000 -0.40000000  0.20000000       0.016
  -0.20000000 -0.40000000  0.40000000       0.016
  -0.40000000 -0.20000000  0.40000000       0.016
   0.40000000 -0.40000000  0.20000000       0.016
   0.40000000 -0.20000000  0.40000000       0.016
   0.20000000 -0.40000000  0.40000000       0.016
   0.40000000  0.40000000  0.40000000       0.016
  -0.40000000  0.40000000  0.40000000       0.016
  -0.40000000 -0.40000000  0.40000000       0.016
   0.40000000 -0.40000000  0.40000000       0.016

 position of ions in fractional coordinates (direct lattice) 
   0.20362711  0.20362143  0.20363040
   0.70362703  0.29637922  0.79636978
   0.79637620  0.70362109  0.29636868
   0.29637636  0.79637987  0.70363103
   0.36292455  0.27216007  0.10381685
   0.27217311  0.10381141  0.36294383
   0.10380399  0.36291093  0.27216364
   0.86292436  0.22784076  0.89618315
   0.77217332  0.39618939  0.63705596
   0.60380405  0.13708987  0.72783623
   0.72782847  0.60381181  0.13705682
   0.89619601  0.86291010  0.22783767
   0.39619650  0.63709009  0.77216223
   0.13707612  0.72784076  0.60381598
   0.22782897  0.89618859  0.86294272
   0.63707550  0.77215989  0.39618370

 position of ions in cartesian coordinates  (Angst):
   1.04470891  1.04467975  1.04472578
   3.60995847  1.52057361  4.08577516
   4.08580811  3.60992798  1.52051951
   1.52055891  4.08582692  3.60997900
   1.86198440  1.39631721  0.53263233
   1.39638414  0.53260446  1.86208330
   0.53256637  1.86191453  1.39633557
   4.42723342  1.16893701  4.59786767
   3.96163521  2.03264968  3.26841562
   3.09781668  0.70333959  3.73416376
   3.73412397  3.09785652  0.70317001
   4.59793363  4.42716029  1.16892118
   2.03268616  3.26859071  3.96157834
   0.70326905  3.73418703  3.09787790
   1.16887653  4.59789554  4.42732765
   3.26851588  3.96156632  2.03262046



--------------------------------------------------------------------------------------------------------


 k-point   1 :   0.0000 0.0000 0.0000  plane waves:    9771
 k-point   2 :   0.2000 0.0000 0.0000  plane waves:    9711
 k-point   3 :   0.0000 0.2000 0.0000  plane waves:    9711
 k-point   4 :   0.0000 0.0000 0.2000  plane waves:    9711
 k-point   5 :   0.4000 0.0000 0.0000  plane waves:    9722
 k-point   6 :   0.0000 0.4000 0.0000  plane waves:    9722
 k-point   7 :   0.0000 0.0000 0.4000  plane waves:    9722
 k-point   8 :   0.2000 0.2000 0.0000  plane waves:    9663
 k-point   9 :   0.0000 0.2000 0.2000  plane waves:    9663
 k-point  10 :   0.2000 0.0000 0.2000  plane waves:    9663
 k-point  11 :  -0.2000 0.2000 0.0000  plane waves:    9663
 k-point  12 :  -0.2000 0.0000 0.2000  plane waves:    9663
 k-point  13 :   0.0000-0.2000 0.2000  plane waves:    9663
 k-point  14 :   0.4000 0.2000 0.0000  plane waves:    9709
 k-point  15 :   0.0000 0.4000 0.2000  plane waves:    9709
 k-point  16 :   0.2000 0.0000 0.4000  plane waves:    9709
 k-point  17 :  -0.2000 0.4000 0.0000  plane waves:    9709
 k-point  18 :  -0.4000 0.0000 0.2000  plane waves:    9709
 k-point  19 :   0.0000 0.2000 0.4000  plane waves:    9709
 k-point  20 :   0.0000-0.4000 0.2000  plane waves:    9709
 k-point  21 :  -0.2000 0.0000 0.4000  plane waves:    9709
 k-point  22 :   0.4000 0.0000 0.2000  plane waves:    9709
 k-point  23 :   0.0000-0.2000 0.4000  plane waves:    9709
 k-point  24 :   0.4000-0.2000 0.0000  plane waves:    9709
 k-point  25 :   0.2000 0.4000 0.0000  plane waves:    9709
 k-point  26 :   0.4000 0.4000 0.0000  plane waves:    9690
 k-point  27 :   0.0000 0.4000 0.4000  plane waves:    9690
 k-point  28 :   0.4000 0.0000 0.4000  plane waves:    9690
 k-point  29 :  -0.4000 0.4000 0.0000  plane waves:    9690
 k-point  30 :  -0.4000 0.0000 0.4000  plane waves:    9690
 k-point  31 :   0.0000-0.4000 0.4000  plane waves:    9690
 k-point  32 :   0.2000 0.2000 0.2000  plane waves:    9714
 k-point  33 :  -0.2000 0.2000 0.2000  plane waves:    9714
 k-point  34 :  -0.2000-0.2000 0.2000  plane waves:    9714
 k-point  35 :   0.2000-0.2000 0.2000  plane waves:    9714
 k-point  36 :   0.4000 0.2000 0.2000  plane waves:    9701
 k-point  37 :   0.2000 0.4000 0.2000  plane waves:    9701
 k-point  38 :   0.2000 0.2000 0.4000  plane waves:    9701
 k-point  39 :  -0.2000 0.4000 0.2000  plane waves:    9701
 k-point  40 :  -0.4000 0.2000 0.2000  plane waves:    9701
 k-point  41 :  -0.2000 0.2000 0.4000  plane waves:    9701
 k-point  42 :  -0.4000-0.2000 0.2000  plane waves:    9701
 k-point  43 :  -0.2000-0.4000 0.2000  plane waves:    9701
 k-point  44 :  -0.2000-0.2000 0.4000  plane waves:    9701
 k-point  45 :   0.2000-0.4000 0.2000  plane waves:    9701
 k-point  46 :   0.4000-0.2000 0.2000  plane waves:    9701
 k-point  47 :   0.2000-0.2000 0.4000  plane waves:    9701
 k-point  48 :   0.4000 0.4000 0.2000  plane waves:    9707
 k-point  49 :   0.2000 0.4000 0.4000  plane waves:    9707
 k-point  50 :   0.4000 0.2000 0.4000  plane waves:    9707
 k-point  51 :  -0.4000 0.4000 0.2000  plane waves:    9707
 k-point  52 :  -0.4000 0.2000 0.4000  plane waves:    9707
 k-point  53 :  -0.2000 0.4000 0.4000  plane waves:    9707
 k-point  54 :  -0.4000-0.4000 0.2000  plane waves:    9707
 k-point  55 :  -0.2000-0.4000 0.4000  plane waves:    9707
 k-point  56 :  -0.4000-0.2000 0.4000  plane waves:    9707
 k-point  57 :   0.4000-0.4000 0.2000  plane waves:    9707
 k-point  58 :   0.4000-0.2000 0.4000  plane waves:    9707
 k-point  59 :   0.2000-0.4000 0.4000  plane waves:    9707
 k-point  60 :   0.4000 0.4000 0.4000  plane waves:    9688
 k-point  61 :  -0.4000 0.4000 0.4000  plane waves:    9688
 k-point  62 :  -0.4000-0.4000 0.4000  plane waves:    9688
 k-point  63 :   0.4000-0.4000 0.4000  plane waves:    9688

 maximum and minimum number of plane-waves per node :      4908     4785

 maximum number of plane-waves:      9771
 maximum index in each direction: 
   IXMAX=   13   IYMAX=   13   IZMAX=   13
   IXMIN=  -13   IYMIN=  -13   IZMIN=  -13


 parallel 3D FFT for wavefunctions:
    minimum data exchange during FFTs selected (reduces bandwidth)
 parallel 3D FFT for charge:
    minimum data exchange during FFTs selected (reduces bandwidth)


 total amount of memory used by VASP MPI-rank0    93629. kBytes
=======================================================================

   base      :      30000. kBytes
   nonl-proj :      41533. kBytes
   fftplans  :       2758. kBytes
   grid      :       3834. kBytes
   one-center:         24. kBytes
   wavefun   :      15480. kBytes

     INWAV:  cpu time      0.0001: real time      0.0003
 Broyden mixing: mesh for mixing (old mesh)
   NGX = 27   NGY = 27   NGZ = 27
  (NGX  =108   NGY  =108   NGZ  =108)
  gives a total of  19683 points

 initial charge density was supplied:
 charge density of overlapping atoms calculated
 number of electron      32.0000000 magnetization 
 keeping initial charge density in first step


--------------------------------------------------------------------------------------------------------


 Maximum index for augmentation-charges            0 (set IRDMAX)


--------------------------------------------------------------------------------------------------------


 First call to EWALD:  gamma=   0.345
 Maximum number of real-space cells 3x 3x 3
 Maximum number of reciprocal cells 3x 3x 3

    FEWALD:  cpu time      0.0033: real time      0.0033


--------------------------------------- Ionic step        1  -------------------------------------------




--------------------------------------- Iteration      1(   1)  ---------------------------------------


    POTLOK:  cpu time      0.0736: real time      0.0744
    SETDIJ:  cpu time      0.0104: real time      0.0107
    TRIAL :  cpu time     33.4912: real time     33.5049
    CORREC:  cpu time      0.0010: real time      0.0011
    --------------------------------------------
      LOOP:  cpu time     33.6011: real time     33.6161

 eigenvalue-minimisations  : 16128
 total energy-change (2. order) : 0.1005268E+02  (-0.3384389E+04)
 number of electron      32.0000000 magnetization 
 augmentation part       32.0000000 magnetization 

 Free energy of the ion-electron system (eV)
  ---------------------------------------------------
  alpha Z        PSCENC =        20.96897804
  Ewald energy   TEWEN  =      -598.68038505
  -Hartree energ DENC   =      -427.01813708
  -exchange      EXHF   =         0.00000000
  -V(xc)+E(xc)   XCENC  =        92.82539804
  PAW double counting   =       840.40020016     -836.17951766
  entropy T*S    EENTRO =         0.00000000
  eigenvalues    EBANDS =      -291.57719618
  atomic energy  EATOM  =      1209.31334452
  ---------------------------------------------------
  free energy    TOTEN  =        10.05268480 eV

  energy without entropy =       10.05268480  energy(sigma->0) =       10.05268480


--------------------------------------------------------------------------------------------------------




--------------------------------------- Iteration      1(   2)  ---------------------------------------


    TRIAL :  cpu time     94.2330: real time     94.2914
    CORREC:  cpu time      0.0004: real time      0.0004
    --------------------------------------------
      LOOP:  cpu time     94.2485: real time     94.3208

 eigenvalue-minimisations  : 24192
 total energy-change (2. order) :-0.9749203E+02  (-0.9749203E+02)
 number of electron      32.0000000 magnetization 
 augmentation part       32.0000000 magnetization 

 Free energy of the ion-electron system (eV)
  ---------------------------------------------------
  alpha Z        PSCENC =        20.96897804
  Ewald energy   TEWEN  =      -598.68038505
  -Hartree energ DENC   =      -427.01813708
  -exchange      EXHF   =         0.00000000
  -V(xc)+E(xc)   XCENC  =        92.82539804
  PAW double counting   =       840.40020016     -836.17951766
  entropy T*S    EENTRO =        -0.00000000
  eigenvalues    EBANDS =      -389.06922431
  atomic energy  EATOM  =      1209.31334452
  ---------------------------------------------------
  free energy    TOTEN  =       -87.43934333 eV

  energy without entropy =      -87.43934333  energy(sigma->0) =      -87.43934333


--------------------------------------------------------------------------------------------------------




--------------------------------------- Iteration      1(   3)  ---------------------------------------


    TRIAL :  cpu time     36.4965: real time     36.5155
    CORREC:  cpu time      0.0004: real time      0.0004
    --------------------------------------------
      LOOP:  cpu time     36.5130: real time     36.5458

 eigenvalue-minimisations  : 16128
 total energy-change (2. order) :-0.4766789E+00  (-0.4766789E+00)
 number of electron      32.0000000 magnetization 
 augmentation part       32.0000000 magnetization 

 Free energy of the ion-electron system (eV)
  ---------------------------------------------------
  alpha Z        PSCENC =        20.96897804
  Ewald energy   TEWEN  =      -598.68038505
  -Hartree energ DENC   =      -427.01813708
  -exchange      EXHF   =         0.00000000
  -V(xc)+E(xc)   XCENC  =        92.82539804
  PAW double counting   =       840.40020016     -836.17951766
  entropy T*S    EENTRO =        -0.00000000
  eigenvalues    EBANDS =      -389.54590326
  atomic energy  EATOM  =      1209.31334452
  ---------------------------------------------------
  free energy    TOTEN  =       -87.91602228 eV

  energy without entropy =      -87.91602228  energy(sigma->0) =      -87.91602228


--------------------------------------------------------------------------------------------------------




--------------------------------------- Iteration      1(   4)  ---------------------------------------


    TRIAL :  cpu time    199.1911: real time    199.2886
    CORREC:  cpu time      0.0021: real time      0.0021
    --------------------------------------------
      LOOP:  cpu time    199.2228: real time    199.3205

 eigenvalue-minimisations  : 32256
 total energy-change (2. order) :-0.4983992E-03  (-0.4983992E-03)
 number of electron      32.0000000 magnetization 
 augmentation part       32.0000000 magnetization 

 Free energy of the ion-electron system (eV)
  ---------------------------------------------------
  alpha Z        PSCENC =        20.96897804
  Ewald energy   TEWEN  =      -598.68038505
  -Hartree energ DENC   =      -427.01813708
  -exchange      EXHF   =         0.00000000
  -V(xc)+E(xc)   XCENC  =        92.82539804
  PAW double counting   =       840.40020016     -836.17951766
  entropy T*S    EENTRO =        -0.00000000
  eigenvalues    EBANDS =      -389.54640166
  atomic energy  EATOM  =      1209.31334452
  ---------------------------------------------------
  free energy    TOTEN  =       -87.91652068 eV

  energy without entropy =      -87.91652068  energy(sigma->0) =      -87.91652068


--------------------------------------------------------------------------------------------------------




--------------------------------------- Iteration      1(   5)  ---------------------------------------


    TRIAL :  cpu time     36.0166: real time     36.0349
    CORREC:  cpu time      0.0018: real time      0.0018
    CHARGE:  cpu time      0.0867: real time      0.0869
    --------------------------------------------
      LOOP:  cpu time     36.1165: real time     36.1542

 eigenvalue-minimisations  : 16128
 total energy-change (2. order) :-0.6220944E-09  (-0.6216988E-09)
 number of electron      32.0000000 magnetization 
 augmentation part        0.0754258 magnetization 

 Free energy of the ion-electron system (eV)
  ---------------------------------------------------
  alpha Z        PSCENC =        20.96897804
  Ewald energy   TEWEN  =      -598.68038505
  -Hartree energ DENC   =      -427.01813708
  -exchange      EXHF   =         0.00000000
  -V(xc)+E(xc)   XCENC  =        92.82539804
  PAW double counting   =       840.40020016     -836.17951766
  entropy T*S    EENTRO =        -0.00000000
  eigenvalues    EBANDS =      -389.54640166
  atomic energy  EATOM  =      1209.31334452
  ---------------------------------------------------
  free energy    TOTEN  =       -87.91652068 eV

  energy without entropy =      -87.91652068  energy(sigma->0) =      -87.91652068


--------------------------------------------------------------------------------------------------------




--------------------------------------- Iteration      1(   6)  ---------------------------------------


    POTLOK:  cpu time      0.0548: real time      0.0549
    SETDIJ:  cpu time      0.0042: real time      0.0042
    TRIAL :  cpu time      4.6504: real time      4.6538
    CORREC:  cpu time      2.0133: real time      2.0154
    CHARGE:  cpu time      0.0712: real time      0.0712
    --------------------------------------------
      LOOP:  cpu time      6.8078: real time      6.8288

 eigenvalue-minimisations  :     0
 total energy-change (2. order) : 0.2596309E+02  (-0.1482227E+02)
 number of electron      32.0000000 magnetization 
 augmentation part       -0.0160673 magnetization 

 Free energy of the ion-electron system (eV)
  ---------------------------------------------------
  alpha Z        PSCENC =        20.96897804
  Ewald energy   TEWEN  =      -598.68038505
  -Hartree energ DENC   =      -683.47454545
  -exchange      EXHF   =         0.00000000
  -V(xc)+E(xc)   XCENC  =       110.41605673
  PAW double counting   =      4077.98279624    -4076.47350898
  entropy T*S    EENTRO =        -0.00000000
  eigenvalues    EBANDS =      -122.00616738
  atomic energy  EATOM  =      1209.31334452
  ---------------------------------------------------
  free energy    TOTEN  =       -61.95343134 eV

  energy without entropy =      -61.95343134  energy(sigma->0) =      -61.95343134


--------------------------------------------------------------------------------------------------------




--------------------------------------- Iteration      1(   7)  ---------------------------------------


    POTLOK:  cpu time      0.0508: real time      0.0511
    SETDIJ:  cpu time      0.0042: real time      0.0042
    TRIAL :  cpu time      3.1438: real time      3.1451
    CORREC:  cpu time      2.0246: real time      2.0257
    CHARGE:  cpu time      0.0714: real time      0.0714
    --------------------------------------------
      LOOP:  cpu time      5.3098: real time      5.3275

 eigenvalue-minimisations  :     0
 total energy-change (2. order) :-0.1464023E+02  (-0.6729401E+00)
 number of electron      32.0000000 magnetization 
 augmentation part       -0.0112547 magnetization 

 Free energy of the ion-electron system (eV)
  ---------------------------------------------------
  alpha Z        PSCENC =        20.96897804
  Ewald energy   TEWEN  =      -598.68038505
  -Hartree energ DENC   =      -543.15577320
  -exchange      EXHF   =         0.00000000
  -V(xc)+E(xc)   XCENC  =       102.11481777
  PAW double counting   =     14062.98038381   -14059.49675512
  entropy T*S    EENTRO =        -0.00000000
  eigenvalues    EBANDS =      -270.63827260
  atomic energy  EATOM  =      1209.31334452
  ---------------------------------------------------
  free energy    TOTEN  =       -76.59366182 eV

  energy without entropy =      -76.59366182  energy(sigma->0) =      -76.59366182


--------------------------------------------------------------------------------------------------------




--------------------------------------- Iteration      1(   8)  ---------------------------------------


    POTLOK:  cpu time      0.0496: real time      0.0496
    SETDIJ:  cpu time      0.0041: real time      0.0041
    TRIAL :  cpu time      3.1499: real time      3.1521
    CORREC:  cpu time      1.9947: real time      1.9958
    CHARGE:  cpu time      0.0713: real time      0.0713
    --------------------------------------------
      LOOP:  cpu time      5.2836: real time      5.3040

 eigenvalue-minimisations  :     0
 total energy-change (2. order) :-0.6760065E+00  (-0.2810719E-01)
 number of electron      32.0000000 magnetization 
 augmentation part       -0.0114488 magnetization 

 Free energy of the ion-electron system (eV)
  ---------------------------------------------------
  alpha Z        PSCENC =        20.96897804
  Ewald energy   TEWEN  =      -598.68038505
  -Hartree energ DENC   =      -537.69835773
  -exchange      EXHF   =         0.00000000
  -V(xc)+E(xc)   XCENC  =       101.48451384
  PAW double counting   =      7797.13608567    -7793.82427408
  entropy T*S    EENTRO =        -0.00000000
  eigenvalues    EBANDS =      -275.96957354
  atomic energy  EATOM  =      1209.31334452
  ---------------------------------------------------
  free energy    TOTEN  =       -77.26966834 eV

  energy without entropy =      -77.26966834  energy(sigma->0) =      -77.26966834


--------------------------------------------------------------------------------------------------------




--------------------------------------- Iteration      1(   9)  ---------------------------------------


    POTLOK:  cpu time      0.0496: real time      0.0496
    SETDIJ:  cpu time      0.0041: real time      0.0041
    TRIAL :  cpu time      3.1789: real time      3.1808
    CORREC:  cpu time      1.9911: real time      1.9922
    CHARGE:  cpu time      0.0704: real time      0.0704
    --------------------------------------------
      LOOP:  cpu time      5.3077: real time      5.3277

 eigenvalue-minimisations  :     0
 total energy-change (2. order) :-0.2810425E-01  (-0.4460904E-02)
 number of electron      32.0000000 magnetization 
 augmentation part       -0.0131945 magnetization 

 Free energy of the ion-electron system (eV)
  ---------------------------------------------------
  alpha Z        PSCENC =        20.96897804
  Ewald energy   TEWEN  =      -598.68038505
  -Hartree energ DENC   =      -537.21591507
  -exchange      EXHF   =         0.00000000
  -V(xc)+E(xc)   XCENC  =       101.39130982
  PAW double counting   =      7393.37820561    -7390.08300557
  entropy T*S    EENTRO =        -0.00000000
  eigenvalues    EBANDS =      -276.37030489
  atomic energy  EATOM  =      1209.31334452
  ---------------------------------------------------
  free energy    TOTEN  =       -77.29777258 eV

  energy without entropy =      -77.29777258  energy(sigma->0) =      -77.29777258


--------------------------------------------------------------------------------------------------------




--------------------------------------- Iteration      1(  10)  ---------------------------------------


    POTLOK:  cpu time      0.0514: real time      0.0514
    SETDIJ:  cpu time      0.0041: real time      0.0041
    TRIAL :  cpu time      3.1513: real time      3.1538
    CORREC:  cpu time      2.0039: real time      2.0049
    CHARGE:  cpu time      0.0710: real time      0.0710
    --------------------------------------------
      LOOP:  cpu time      5.2958: real time      5.3143

 eigenvalue-minimisations  :     0
 total energy-change (2. order) :-0.4455806E-02  (-0.5166965E-03)
 number of electron      32.0000000 magnetization 
 augmentation part       -0.0125262 magnetization 

 Free energy of the ion-electron system (eV)
  ---------------------------------------------------
  alpha Z        PSCENC =        20.96897804
  Ewald energy   TEWEN  =      -598.68038505
  -Hartree energ DENC   =      -536.69496680
  -exchange      EXHF   =         0.00000000
  -V(xc)+E(xc)   XCENC  =       101.33725930
  PAW double counting   =      7505.80669466    -7502.50161064
  entropy T*S    EENTRO =        -0.00000000
  eigenvalues    EBANDS =      -276.85154241
  atomic energy  EATOM  =      1209.31334452
  ---------------------------------------------------
  free energy    TOTEN  =       -77.30222839 eV

  energy without entropy =      -77.30222839  energy(sigma->0) =      -77.30222839


--------------------------------------------------------------------------------------------------------




--------------------------------------- Iteration      1(  11)  ---------------------------------------


    POTLOK:  cpu time      0.0507: real time      0.0507
    SETDIJ:  cpu time      0.0042: real time      0.0042
    TRIAL :  cpu time      3.1389: real time      3.1406
    CORREC:  cpu time      1.9911: real time      1.9921
    CHARGE:  cpu time      0.0711: real time      0.0711
    --------------------------------------------
      LOOP:  cpu time      5.2723: real time      5.2891

 eigenvalue-minimisations  :     0
 total energy-change (2. order) :-0.5190199E-03  (-0.2177866E-04)
 number of electron      32.0000000 magnetization 
 augmentation part       -0.0124226 magnetization 

 Free energy of the ion-electron system (eV)
  ---------------------------------------------------
  alpha Z        PSCENC =        20.96897804
  Ewald energy   TEWEN  =      -598.68038505
  -Hartree energ DENC   =      -536.75007827
  -exchange      EXHF   =         0.00000000
  -V(xc)+E(xc)   XCENC  =       101.33382088
  PAW double counting   =      7491.28148648    -7487.97972399
  entropy T*S    EENTRO =        -0.00000000
  eigenvalues    EBANDS =      -276.79019001
  atomic energy  EATOM  =      1209.31334452
  ---------------------------------------------------
  free energy    TOTEN  =       -77.30274741 eV

  energy without entropy =      -77.30274741  energy(sigma->0) =      -77.30274741


--------------------------------------------------------------------------------------------------------




--------------------------------------- Iteration      1(  12)  ---------------------------------------


    POTLOK:  cpu time      0.0609: real time      0.0609
    SETDIJ:  cpu time      0.0041: real time      0.0041
    TRIAL :  cpu time      3.1381: real time      3.1396
    CORREC:  cpu time      1.9885: real time      1.9899
    CHARGE:  cpu time      0.0713: real time      0.0713
    --------------------------------------------
      LOOP:  cpu time      5.2767: real time      5.2968

 eigenvalue-minimisations  :     0
 total energy-change (2. order) :-0.2220278E-04  (-0.2784171E-05)
 number of electron      32.0000000 magnetization 
 augmentation part       -0.0124128 magnetization 

 Free energy of the ion-electron system (eV)
  ---------------------------------------------------
  alpha Z        PSCENC =        20.96897804
  Ewald energy   TEWEN  =      -598.68038505
  -Hartree energ DENC   =      -536.72269694
  -exchange      EXHF   =         0.00000000
  -V(xc)+E(xc)   XCENC  =       101.33212741
  PAW double counting   =      7505.71835363    -7502.41632646
  entropy T*S    EENTRO =        -0.00000000
  eigenvalues    EBANDS =      -276.81616477
  atomic energy  EATOM  =      1209.31334452
  ---------------------------------------------------
  free energy    TOTEN  =       -77.30276961 eV

  energy without entropy =      -77.30276961  energy(sigma->0) =      -77.30276961


--------------------------------------------------------------------------------------------------------




--------------------------------------- Iteration      1(  13)  ---------------------------------------


    POTLOK:  cpu time      0.0498: real time      0.0498
    SETDIJ:  cpu time      0.0042: real time      0.0042
    TRIAL :  cpu time      3.1380: real time      3.1404
    CORREC:  cpu time      1.9890: real time      1.9901
    CHARGE:  cpu time      0.0715: real time      0.0715
    --------------------------------------------
      LOOP:  cpu time      5.2673: real time      5.2857

 eigenvalue-minimisations  :     0
 total energy-change (2. order) :-0.2453974E-05  (-0.2669389E-06)
 number of electron      32.0000000 magnetization 
 augmentation part       -0.0124079 magnetization 

 Free energy of the ion-electron system (eV)
  ---------------------------------------------------
  alpha Z        PSCENC =        20.96897804
  Ewald energy   TEWEN  =      -598.68038505
  -Hartree energ DENC   =      -536.73341624
  -exchange      EXHF   =         0.00000000
  -V(xc)+E(xc)   XCENC  =       101.33294232
  PAW double counting   =      7512.10322725    -7508.80129813
  entropy T*S    EENTRO =        -0.00000000
  eigenvalues    EBANDS =      -276.80616478
  atomic energy  EATOM  =      1209.31334452
  ---------------------------------------------------
  free energy    TOTEN  =       -77.30277207 eV

  energy without entropy =      -77.30277207  energy(sigma->0) =      -77.30277207


--------------------------------------------------------------------------------------------------------




--------------------------------------- Iteration      1(  14)  ---------------------------------------


    POTLOK:  cpu time      0.0500: real time      0.0500
    SETDIJ:  cpu time      0.0041: real time      0.0041
    TRIAL :  cpu time      3.1656: real time      3.1673
    CORREC:  cpu time      1.9969: real time      1.9979
    CHARGE:  cpu time      0.0709: real time      0.0709
    --------------------------------------------
      LOOP:  cpu time      5.3013: real time      5.3204

 eigenvalue-minimisations  :     0
 total energy-change (2. order) :-0.2847482E-06  (-0.4732421E-07)
 number of electron      32.0000000 magnetization 
 augmentation part       -0.0124071 magnetization 

 Free energy of the ion-electron system (eV)
  ---------------------------------------------------
  alpha Z        PSCENC =        20.96897804
  Ewald energy   TEWEN  =      -598.68038505
  -Hartree energ DENC   =      -536.73117832
  -exchange      EXHF   =         0.00000000
  -V(xc)+E(xc)   XCENC  =       101.33279783
  PAW double counting   =      7511.01488549    -7507.71294152
  entropy T*S    EENTRO =        -0.00000000
  eigenvalues    EBANDS =      -276.80827335
  atomic energy  EATOM  =      1209.31334452
  ---------------------------------------------------
  free energy    TOTEN  =       -77.30277235 eV

  energy without entropy =      -77.30277235  energy(sigma->0) =      -77.30277235


--------------------------------------------------------------------------------------------------------




--------------------------------------- Iteration      1(  15)  ---------------------------------------


    POTLOK:  cpu time      0.0498: real time      0.0498
    SETDIJ:  cpu time      0.0041: real time      0.0041
    TRIAL :  cpu time      3.1433: real time      3.1450
    CORREC:  cpu time      2.0027: real time      2.0037
    EDDIAG:  cpu time      1.8895: real time      1.8905
    CHARGE:  cpu time      0.0697: real time      0.0697
    --------------------------------------------
      LOOP:  cpu time      7.1903: real time      7.1943

 eigenvalue-minimisations  :     0
 total energy-change (2. order) :-0.4351477E-07  (-0.1492393E-07)
 number of electron      32.0000000 magnetization 
 augmentation part       -0.0124074 magnetization 

 Free energy of the ion-electron system (eV)
  ---------------------------------------------------
  alpha Z        PSCENC =        20.96897804
  Ewald energy   TEWEN  =      -598.68038505
  -Hartree energ DENC   =      -536.73035347
  -exchange      EXHF   =         0.00000000
  -V(xc)+E(xc)   XCENC  =       101.33273486
  PAW double counting   =      7510.13046832    -7506.82851867
  entropy T*S    EENTRO =        -0.00000000
  eigenvalues    EBANDS =      -276.80904095
  atomic energy  EATOM  =      1209.31334452
  ---------------------------------------------------
  free energy    TOTEN  =       -77.30277239 eV

  energy without entropy =      -77.30277239  energy(sigma->0) =      -77.30277239


--------------------------------------------------------------------------------------------------------


  average scaling for gradient   1.4798


 average (electrostatic) potential at core
  the test charge radii are     0.5902  0.4325
  (the norm of the test charge is              1.0000)
       1 -99.4592       2 -99.4592       3 -99.4592       4 -99.4592       5 -42.8908
       6 -42.8902       7 -42.8909       8 -42.8908       9 -42.8902      10 -42.8909
      11 -42.8902      12 -42.8910      13 -42.8910      14 -42.8907      15 -42.8903
      16 -42.8907



 E-fermi :  -2.0796     XC(G=0):  -7.0049     alpha+bet : -5.1342

 Fermi energy:        -2.0795572029

 k-point     1 :       0.0000    0.0000    0.0000
  band No.  band energies     occupation 
      1     -17.6312      2.00000
      2     -16.9762      2.00000
      3     -16.9762      2.00000
      4     -16.9761      2.00000
      5      -7.9908      2.00000
      6      -7.9905      2.00000
      7      -7.9904      2.00000
      8      -7.1815      2.00000
      9      -7.1809      2.00000
     10      -6.9410      2.00000
     11      -6.9409      2.00000
     12      -6.9406      2.00000
     13      -2.6745      2.00000
     14      -2.6744      2.00000
     15      -2.6744      2.00000
     16      -2.1941      2.00000
     17       2.1509      0.00000
     18       5.3621      0.00000
     19       5.3622      0.00000
     20       5.3622      0.00000
     21       6.8122      0.00000
     22       6.8123      0.00000
     23       6.8124      0.00000
     24       8.8016      0.00000
     25       8.8017      0.00000
     26       8.8017      0.00000
     27       9.6001      0.00000
     28       9.6001      0.00000
     29       9.6004      0.00000
     30      10.9030      0.00000
     31      10.9037      0.00000
     32      12.2750      0.00000
     33      12.2751      0.00000
     34      12.2753      0.00000
     35      12.3583      0.00000
     36      14.4700      0.00000
     37      14.9283      0.00000
     38      14.9288      0.00000
     39      15.7855      0.00000
     40      15.7858      0.00000
     41      15.7860      0.00000
     42      16.6997      0.00000
     43      16.6997      0.00000
     44      16.6999      0.00000
     45      19.3042      0.00000
     46      19.6298      0.00000
     47      19.6299      0.00000
     48      19.6302      0.00000
     49      20.2203      0.00000
     50      20.2208      0.00000
     51      20.6498      0.00000
     52      20.6499      0.00000
     53      20.6500      0.00000
     54      21.7111      0.00000
     55      21.7111      0.00000
     56      21.7113      0.00000
     57      23.6629      0.00000
     58      24.0377      0.00000
     59      24.0378      0.00000
     60      24.0378      0.00000
     61      26.5962      0.00000
     62      26.6031      0.00000
     63      26.6032      0.00000
     64      26.6033      0.00000
     65      27.1780      0.00000
     66      27.1783      0.00000
     67      27.5498      0.00000
     68      27.5499      0.00000
     69      27.5501      0.00000
     70      28.5050      0.00000
     71      28.5051      0.00000
     72      28.5052      0.00000
     73      28.7143      0.00000
     74      28.8178      0.00000
     75      28.8180      0.00000
     76      28.8182      0.00000
     77      29.6415      0.00000
     78      29.6419      0.00000
     79      29.8324      0.00000
     80      30.0035      0.00000
     81      30.0037      0.00000
     82      30.0038      0.00000
     83      30.6341      0.00000
     84      30.6343      0.00000
     85      30.6344      0.00000
     86      33.1952      0.00000
     87      33.1953      0.00000
     88      33.1954      0.00000
     89      33.1984      0.00000
     90      33.1989      0.00000
     91      34.6375      0.00000
     92      34.6379      0.00000
     93      34.6380      0.00000
     94      37.0449      0.00000
     95      37.0449      0.00000
     96      37.0451      0.00000
     97      37.3162      0.00000
     98      37.3163      0.00000
     99      37.3166      0.00000
    100      39.6135      0.00000
    101      39.6139      0.00000
    102      40.6351      0.00000
    103      41.3908      0.00000
    104      41.3911      0.00000
    105      41.3914      0.00000
    106      43.5266      0.00000
    107      43.5267      0.00000
    108      43.5272      0.00000
    109      43.5431      0.00000
    110      44.2926      0.00000
    111      44.2944      0.00000
    112      44.3437      0.00000
    113      44.3437      0.00000
    114      44.3439      0.00000
    115      44.5346      0.00000
    116      44.5348      0.00000
    117      44.5348      0.00000
    118      45.4737      0.00000
    119      45.4739      0.00000
    120      45.4739      0.00000
    121      46.2552      0.00000
    122      46.2554      0.00000
    123      46.2554      0.00000
    124      47.7683      0.00000
    125      47.7684      0.00000
    126      47.7686      0.00000
    127      48.0131      0.00000
    128      49.0398      0.00000

 k-point     2 :       0.2000    0.0000    0.0000
  band No.  band energies     occupation 
      1     -17.5772      2.00000
      2     -17.0735      2.00000
      3     -16.9701      2.00000
      4     -16.9442      2.00000
      5      -7.9740      2.00000
      6      -7.9661      2.00000
      7      -7.8834      2.00000
      8      -7.2611      2.00000
      9      -7.1421      2.00000
     10      -7.1009      2.00000
     11      -6.9878      2.00000
     12      -6.8651      2.00000
     13      -2.8151      2.00000
     14      -2.7756      2.00000
     15      -2.5506      2.00000
     16      -2.2398      2.00000
     17       2.5487      0.00000
     18       5.1671      0.00000
     19       5.6888      0.00000
     20       5.7212      0.00000
     21       6.6935      0.00000
     22       6.9406      0.00000
     23       7.1318      0.00000
     24       8.4243      0.00000
     25       8.5654      0.00000
     26       9.1513      0.00000
     27       9.2321      0.00000
     28       9.5689      0.00000
     29       9.7543      0.00000
     30      10.4177      0.00000
     31      10.5254      0.00000
     32      11.3340      0.00000
     33      12.1858      0.00000
     34      12.4513      0.00000
     35      13.2073      0.00000
     36      13.8579      0.00000
     37      14.6685      0.00000
     38      15.0606      0.00000
     39      15.3549      0.00000
     40      16.2490      0.00000
     41      16.3921      0.00000
     42      16.5903      0.00000
     43      16.8974      0.00000
     44      17.3200      0.00000
     45      18.5948      0.00000
     46      19.4726      0.00000
     47      19.4755      0.00000
     48      19.8944      0.00000
     49      19.9007      0.00000
     50      20.0202      0.00000
     51      20.9238      0.00000
     52      21.1304      0.00000
     53      21.5336      0.00000
     54      21.6175      0.00000
     55      22.3691      0.00000
     56      22.5479      0.00000
     57      23.3253      0.00000
     58      23.4000      0.00000
     59      24.0789      0.00000
     60      24.4368      0.00000
     61      25.2506      0.00000
     62      25.3377      0.00000
     63      25.3959      0.00000
     64      26.2833      0.00000
     65      26.2912      0.00000
     66      26.5686      0.00000
     67      26.6122      0.00000
     68      26.9448      0.00000
     69      27.3710      0.00000
     70      27.7849      0.00000
     71      27.7913      0.00000
     72      28.0833      0.00000
     73      28.5683      0.00000
     74      28.9510      0.00000
     75      29.0375      0.00000
     76      29.6031      0.00000
     77      30.0074      0.00000
     78      30.3079      0.00000
     79      30.8697      0.00000
     80      31.3469      0.00000
     81      31.5874      0.00000
     82      31.6351      0.00000
     83      31.8656      0.00000
     84      32.1686      0.00000
     85      32.2228      0.00000
     86      32.4016      0.00000
     87      32.6915      0.00000
     88      33.2449      0.00000
     89      33.8244      0.00000
     90      34.5269      0.00000
     91      34.7215      0.00000
     92      35.0581      0.00000
     93      35.6771      0.00000
     94      35.8398      0.00000
     95      36.7108      0.00000
     96      36.8592      0.00000
     97      37.1694      0.00000
     98      37.8402      0.00000
     99      38.9536      0.00000
    100      39.2952      0.00000
    101      39.3481      0.00000
    102      39.6835      0.00000
    103      40.7611      0.00000
    104      41.2047      0.00000
    105      41.2503      0.00000
    106      41.4320      0.00000
    107      42.1688      0.00000
    108      42.2950      0.00000
    109      42.4342      0.00000
    110      42.6891      0.00000
    111      43.2574      0.00000
    112      43.2855      0.00000
    113      44.2669      0.00000
    114      44.4859      0.00000
    115      44.5789      0.00000
    116      44.9192      0.00000
    117      45.0056      0.00000
    118      45.3982      0.00000
    119      45.6663      0.00000
    120      45.8948      0.00000
    121      46.2065      0.00000
    122      46.5326      0.00000
    123      46.9893      0.00000
    124      47.0174      0.00000
    125      47.4447      0.00000
    126      47.4580      0.00000
    127      47.8599      0.00000
    128      47.9600      0.00000

 k-point     3 :       0.0000    0.2000    0.0000
  band No.  band energies     occupation 
      1     -17.5772      2.00000
      2     -17.0735      2.00000
      3     -16.9701      2.00000
      4     -16.9442      2.00000
      5      -7.9739      2.00000
      6      -7.9665      2.00000
      7      -7.8831      2.00000
      8      -7.2610      2.00000
      9      -7.1422      2.00000
     10      -7.1011      2.00000
     11      -6.9875      2.00000
     12      -6.8652      2.00000
     13      -2.8152      2.00000
     14      -2.7755      2.00000
     15      -2.5506      2.00000
     16      -2.2398      2.00000
     17       2.5487      0.00000
     18       5.1671      0.00000
     19       5.6887      0.00000
     20       5.7211      0.00000
     21       6.6935      0.00000
     22       6.9405      0.00000
     23       7.1321      0.00000
     24       8.4243      0.00000
     25       8.5655      0.00000
     26       9.1512      0.00000
     27       9.2321      0.00000
     28       9.5689      0.00000
     29       9.7545      0.00000
     30      10.4174      0.00000
     31      10.5257      0.00000
     32      11.3337      0.00000
     33      12.1857      0.00000
     34      12.4513      0.00000
     35      13.2075      0.00000
     36      13.8581      0.00000
     37      14.6685      0.00000
     38      15.0607      0.00000
     39      15.3546      0.00000
     40      16.2488      0.00000
     41      16.3922      0.00000
     42      16.5903      0.00000
     43      16.8974      0.00000
     44      17.3198      0.00000
     45      18.5948      0.00000
     46      19.4724      0.00000
     47      19.4756      0.00000
     48      19.8943      0.00000
     49      19.9005      0.00000
     50      20.0201      0.00000
     51      20.9239      0.00000
     52      21.1302      0.00000
     53      21.5335      0.00000
     54      21.6179      0.00000
     55      22.3693      0.00000
     56      22.5481      0.00000
     57      23.3253      0.00000
     58      23.4005      0.00000
     59      24.0789      0.00000
     60      24.4370      0.00000
     61      25.2503      0.00000
     62      25.3378      0.00000
     63      25.3960      0.00000
     64      26.2832      0.00000
     65      26.2914      0.00000
     66      26.5686      0.00000
     67      26.6118      0.00000
     68      26.9448      0.00000
     69      27.3708      0.00000
     70      27.7851      0.00000
     71      27.7916      0.00000
     72      28.0830      0.00000
     73      28.5681      0.00000
     74      28.9507      0.00000
     75      29.0377      0.00000
     76      29.6034      0.00000
     77      30.0076      0.00000
     78      30.3077      0.00000
     79      30.8695      0.00000
     80      31.3471      0.00000
     81      31.5876      0.00000
     82      31.6350      0.00000
     83      31.8653      0.00000
     84      32.1686      0.00000
     85      32.2229      0.00000
     86      32.4021      0.00000
     87      32.6918      0.00000
     88      33.2446      0.00000
     89      33.8241      0.00000
     90      34.5270      0.00000
     91      34.7213      0.00000
     92      35.0579      0.00000
     93      35.6772      0.00000
     94      35.8400      0.00000
     95      36.7108      0.00000
     96      36.8593      0.00000
     97      37.1694      0.00000
     98      37.8399      0.00000
     99      38.9533      0.00000
    100      39.2951      0.00000
    101      39.3480      0.00000
    102      39.6836      0.00000
    103      40.7611      0.00000
    104      41.2045      0.00000
    105      41.2507      0.00000
    106      41.4322      0.00000
    107      42.1691      0.00000
    108      42.2950      0.00000
    109      42.4339      0.00000
    110      42.6894      0.00000
    111      43.2574      0.00000
    112      43.2855      0.00000
    113      44.2670      0.00000
    114      44.4854      0.00000
    115      44.5787      0.00000
    116      44.9193      0.00000
    117      45.0057      0.00000
    118      45.3980      0.00000
    119      45.6663      0.00000
    120      45.8948      0.00000
    121      46.2064      0.00000
    122      46.5327      0.00000
    123      46.9889      0.00000
    124      47.0172      0.00000
    125      47.4446      0.00000
    126      47.4577      0.00000
    127      47.8602      0.00000
    128      47.9572      0.00000

 k-point     4 :       0.0000    0.0000    0.2000
  band No.  band energies     occupation 
      1     -17.5772      2.00000
      2     -17.0735      2.00000
      3     -16.9701      2.00000
      4     -16.9443      2.00000
      5      -7.9741      2.00000
      6      -7.9662      2.00000
      7      -7.8832      2.00000
      8      -7.2614      2.00000
      9      -7.1417      2.00000
[...]
     65      27.0551      0.00000
     66      27.1113      0.00000
     67      27.2734      0.00000
     68      27.4345      0.00000
     69      27.8308      0.00000
     70      28.5375      0.00000
     71      28.5895      0.00000
     72      29.3715      0.00000
     73      29.9771      0.00000
     74      30.5613      0.00000
     75      30.7708      0.00000
     76      30.9975      0.00000
     77      31.3389      0.00000
     78      31.4396      0.00000
     79      31.7120      0.00000
     80      31.9793      0.00000
     81      32.4727      0.00000
     82      32.5518      0.00000
     83      32.8304      0.00000
     84      33.0215      0.00000
     85      34.2255      0.00000
     86      34.2522      0.00000
     87      34.7487      0.00000
     88      34.8156      0.00000
     89      34.9542      0.00000
     90      35.4920      0.00000
     91      35.6740      0.00000
     92      35.7596      0.00000
     93      36.5200      0.00000
     94      36.5877      0.00000
     95      36.6589      0.00000
     96      37.3421      0.00000
     97      37.9746      0.00000
     98      38.0455      0.00000
     99      38.1770      0.00000
    100      38.3316      0.00000
    101      38.8843      0.00000
    102      39.0591      0.00000
    103      39.2462      0.00000
    104      39.4387      0.00000
    105      39.9755      0.00000
    106      40.0805      0.00000
    107      40.4668      0.00000
    108      40.5226      0.00000
    109      41.2501      0.00000
    110      41.4394      0.00000
    111      41.6645      0.00000
    112      41.9243      0.00000
    113      42.1684      0.00000
    114      42.3078      0.00000
    115      42.6395      0.00000
    116      42.9471      0.00000
    117      43.1023      0.00000
    118      43.2855      0.00000
    119      45.0521      0.00000
    120      45.1487      0.00000
    121      45.4807      0.00000
    122      45.5987      0.00000
    123      45.6812      0.00000
    124      45.7274      0.00000
    125      46.1762      0.00000
    126      46.2138      0.00000
    127      46.4115      0.00000
    128      46.4549      0.00000

 k-point    62 :      -0.4000   -0.4000    0.4000
  band No.  band energies     occupation 
      1     -17.2118      2.00000
      2     -17.1685      2.00000
      3     -17.1005      2.00000
      4     -17.0779      2.00000
      5      -8.0609      2.00000
      6      -8.0575      2.00000
      7      -7.9756      2.00000
      8      -7.9306      2.00000
      9      -6.9149      2.00000
     10      -6.8439      2.00000
     11      -6.8320      2.00000
     12      -6.7619      2.00000
     13      -2.7445      2.00000
     14      -2.7274      2.00000
     15      -2.4565      2.00000
     16      -2.4549      2.00000
     17       4.6483      0.00000
     18       5.0618      0.00000
     19       5.1101      0.00000
     20       5.1197      0.00000
     21       7.2573      0.00000
     22       7.2815      0.00000
     23       7.5520      0.00000
     24       7.6142      0.00000
     25       8.4714      0.00000
     26       8.7084      0.00000
     27       8.8606      0.00000
     28       9.0552      0.00000
     29      10.4526      0.00000
     30      10.8075      0.00000
     31      11.3839      0.00000
     32      11.4758      0.00000
     33      13.0160      0.00000
     34      13.3532      0.00000
     35      13.8990      0.00000
     36      13.9007      0.00000
     37      14.1022      0.00000
     38      14.8683      0.00000
     39      15.0154      0.00000
     40      15.0500      0.00000
     41      15.5701      0.00000
     42      16.0291      0.00000
     43      16.1267      0.00000
     44      16.3160      0.00000
     45      17.0722      0.00000
     46      17.3456      0.00000
     47      18.1417      0.00000
     48      18.1887      0.00000
     49      19.3669      0.00000
     50      20.0126      0.00000
     51      20.2538      0.00000
     52      21.3271      0.00000
     53      21.3970      0.00000
     54      21.7793      0.00000
     55      22.2245      0.00000
     56      22.9122      0.00000
     57      22.9540      0.00000
     58      23.4105      0.00000
     59      23.5755      0.00000
     60      23.6743      0.00000
     61      25.7096      0.00000
     62      26.1086      0.00000
     63      26.1205      0.00000
     64      26.3502      0.00000
     65      27.0551      0.00000
     66      27.1113      0.00000
     67      27.2734      0.00000
     68      27.4345      0.00000
     69      27.8308      0.00000
     70      28.5375      0.00000
     71      28.5895      0.00000
     72      29.3715      0.00000
     73      29.9771      0.00000
     74      30.5613      0.00000
     75      30.7708      0.00000
     76      30.9975      0.00000
     77      31.3389      0.00000
     78      31.4396      0.00000
     79      31.7120      0.00000
     80      31.9793      0.00000
     81      32.4727      0.00000
     82      32.5518      0.00000
     83      32.8304      0.00000
     84      33.0215      0.00000
     85      34.2255      0.00000
     86      34.2522      0.00000
     87      34.7487      0.00000
     88      34.8156      0.00000
     89      34.9543      0.00000
     90      35.4920      0.00000
     91      35.6740      0.00000
     92      35.7596      0.00000
     93      36.5200      0.00000
     94      36.5877      0.00000
     95      36.6589      0.00000
     96      37.3422      0.00000
     97      37.9746      0.00000
     98      38.0455      0.00000
     99      38.1770      0.00000
    100      38.3316      0.00000
    101      38.8843      0.00000
    102      39.0591      0.00000
    103      39.2462      0.00000
    104      39.4387      0.00000
    105      39.9755      0.00000
    106      40.0805      0.00000
    107      40.4668      0.00000
    108      40.5226      0.00000
    109      41.2501      0.00000
    110      41.4394      0.00000
    111      41.6645      0.00000
    112      41.9243      0.00000
    113      42.1684      0.00000
    114      42.3078      0.00000
    115      42.6395      0.00000
    116      42.9471      0.00000
    117      43.1023      0.00000
    118      43.2855      0.00000
    119      45.0521      0.00000
    120      45.1487      0.00000
    121      45.4807      0.00000
    122      45.5987      0.00000
    123      45.6812      0.00000
    124      45.7274      0.00000
    125      46.1762      0.00000
    126      46.2139      0.00000
    127      46.4114      0.00000
    128      46.4548      0.00000

 k-point    63 :       0.4000   -0.4000    0.4000
  band No.  band energies     occupation 
      1     -17.2118      2.00000
      2     -17.1685      2.00000
      3     -17.1005      2.00000
      4     -17.0779      2.00000
      5      -8.0609      2.00000
      6      -8.0575      2.00000
      7      -7.9756      2.00000
      8      -7.9306      2.00000
      9      -6.9149      2.00000
     10      -6.8439      2.00000
     11      -6.8320      2.00000
     12      -6.7619      2.00000
     13      -2.7445      2.00000
     14      -2.7274      2.00000
     15      -2.4565      2.00000
     16      -2.4549      2.00000
     17       4.6483      0.00000
     18       5.0618      0.00000
     19       5.1101      0.00000
     20       5.1197      0.00000
     21       7.2573      0.00000
     22       7.2815      0.00000
     23       7.5520      0.00000
     24       7.6142      0.00000
     25       8.4714      0.00000
     26       8.7084      0.00000
     27       8.8606      0.00000
     28       9.0552      0.00000
     29      10.4526      0.00000
     30      10.8075      0.00000
     31      11.3839      0.00000
     32      11.4758      0.00000
     33      13.0160      0.00000
     34      13.3532      0.00000
     35      13.8990      0.00000
     36      13.9007      0.00000
     37      14.1022      0.00000
     38      14.8683      0.00000
     39      15.0154      0.00000
     40      15.0500      0.00000
     41      15.5701      0.00000
     42      16.0291      0.00000
     43      16.1267      0.00000
     44      16.3160      0.00000
     45      17.0722      0.00000
     46      17.3456      0.00000
     47      18.1417      0.00000
     48      18.1887      0.00000
     49      19.3669      0.00000
     50      20.0126      0.00000
     51      20.2538      0.00000
     52      21.3271      0.00000
     53      21.3970      0.00000
     54      21.7793      0.00000
     55      22.2245      0.00000
     56      22.9122      0.00000
     57      22.9540      0.00000
     58      23.4105      0.00000
     59      23.5755      0.00000
     60      23.6744      0.00000
     61      25.7095      0.00000
     62      26.1086      0.00000
     63      26.1205      0.00000
     64      26.3502      0.00000
     65      27.0551      0.00000
     66      27.1113      0.00000
     67      27.2734      0.00000
     68      27.4345      0.00000
     69      27.8308      0.00000
     70      28.5375      0.00000
     71      28.5895      0.00000
     72      29.3715      0.00000
     73      29.9771      0.00000
     74      30.5613      0.00000
     75      30.7708      0.00000
     76      30.9975      0.00000
     77      31.3389      0.00000
     78      31.4396      0.00000
     79      31.7120      0.00000
     80      31.9793      0.00000
     81      32.4727      0.00000
     82      32.5518      0.00000
     83      32.8304      0.00000
     84      33.0215      0.00000
     85      34.2255      0.00000
     86      34.2522      0.00000
     87      34.7487      0.00000
     88      34.8156      0.00000
     89      34.9542      0.00000
     90      35.4920      0.00000
     91      35.6740      0.00000
     92      35.7596      0.00000
     93      36.5200      0.00000
     94      36.5877      0.00000
     95      36.6589      0.00000
     96      37.3422      0.00000
     97      37.9746      0.00000
     98      38.0455      0.00000
     99      38.1770      0.00000
    100      38.3316      0.00000
    101      38.8843      0.00000
    102      39.0591      0.00000
    103      39.2462      0.00000
    104      39.4387      0.00000
    105      39.9755      0.00000
    106      40.0805      0.00000
    107      40.4668      0.00000
    108      40.5226      0.00000
    109      41.2501      0.00000
    110      41.4394      0.00000
    111      41.6645      0.00000
    112      41.9243      0.00000
    113      42.1684      0.00000
    114      42.3078      0.00000
    115      42.6395      0.00000
    116      42.9471      0.00000
    117      43.1023      0.00000
    118      43.2855      0.00000
    119      45.0521      0.00000
    120      45.1487      0.00000
    121      45.4807      0.00000
    122      45.5987      0.00000
    123      45.6812      0.00000
    124      45.7274      0.00000
    125      46.1762      0.00000
    126      46.2139      0.00000
    127      46.4115      0.00000
    128      46.4548      0.00000


--------------------------------------------------------------------------------------------------------


 soft charge-density along one line, spin component           1
         0         1         2         3         4         5         6         7         8         9
 total charge-density along one line

 pseudopotential strength for first ion, spin component:           1
 19.878  27.840   0.027   0.027   0.027   0.040   0.040   0.040
 27.840  38.992   0.038   0.038   0.038   0.057   0.057   0.057
  0.027   0.038  -5.912   0.004   0.004  -8.872   0.006   0.006
  0.027   0.038   0.004  -5.912   0.004   0.006  -8.872   0.006
  0.027   0.038   0.004   0.004  -5.912   0.006   0.006  -8.872
  0.040   0.057  -8.872   0.006   0.006 -13.296   0.009   0.009
  0.040   0.057   0.006  -8.872   0.006   0.009 -13.296   0.009
  0.040   0.057   0.006   0.006  -8.872   0.009   0.009 -13.296
 total augmentation occupancy for first ion, spin component:           1
  9.730  -4.363   1.786   1.785   1.785  -0.792  -0.792  -0.792
 -4.363   2.094  -1.128  -1.128  -1.128   0.424   0.423   0.423
  1.786  -1.128   5.730  -0.856  -0.856  -2.042   0.471   0.471
  1.785  -1.128  -0.856   5.730  -0.856   0.471  -2.042   0.471
  1.785  -1.128  -0.856  -0.856   5.730   0.471   0.471  -2.042
 -0.792   0.424  -2.042   0.471   0.471   0.756  -0.206  -0.206
 -0.792   0.423   0.471  -2.042   0.471  -0.206   0.756  -0.206
 -0.792   0.423   0.471   0.471  -2.042  -0.206  -0.206   0.756


------------------------ aborting loop because EDIFF is reached ----------------------------------------


    FORLOC:  cpu time      0.0044: real time      0.0044
    FORNL :  cpu time      0.5538: real time      0.5545
    FORCOR:  cpu time      0.0538: real time      0.0538
    OFIELD:  cpu time      0.0003: real time      0.0003
 WARNING: Using user supplied parameters
     VDW_S8 = 1.682
     VDW_SR = 1.094
     because the xc functional is not supported. Required parameters not
     defined in the INCAR file will be replaced with PBE defaults ones.


 ---------------------------------------------------------------------------------------------

         DFTD3 V3.0 Rev 1        
 IVDW         = 11
 DF unknown   
 parameters
 VDW_S6       =    1.0000
 VDW_S8       =    1.6820
 VDW_SR       =    1.0940
 rs18     =    1.0000
 alpha6   =   14.0000
 alpha8   =   16.0000
 k1-k3    =   16.0000    1.3333   -4.0000
 VDW_RADIUS   =   50.2022 A
 VDW_CNRADIUS =   21.1671 A
 Edisp (eV)   -1.05686

 E6    (eV) :    -0.5808
 E8    (eV) :    -0.4761
 % E8        : 45.05
    FORVDW:  cpu time      0.2360: real time      0.2367

 VOLUME and BASIS-vectors are now :
 -----------------------------------------------------------------------------
  energy-cutoff  :     1000.00
  volume of cell :      135.05
      direct lattice vectors                 reciprocal lattice vectors
     5.130500000  0.000000000  0.000000000     0.194912777  0.000000000  0.000000000
     0.000000000  5.130500000  0.000000000     0.000000000  0.194912777  0.000000000
     0.000000000  0.000000000  5.130500000     0.000000000  0.000000000  0.194912777

  length of vectors
     5.130500000  5.130500000  5.130500000     0.194912777  0.194912777  0.194912777


 FORCES acting on ions:
    Electron-Ion                     Ewald-Force                    Non-Local-Force
 -----------------------------------------------------------------------------------------------
   0.141E+02 0.141E+02 0.141E+02   -.291E+02 -.292E+02 -.291E+02   0.153E+02 0.153E+02 0.153E+02
   0.141E+02 -.141E+02 -.141E+02   -.291E+02 0.292E+02 0.291E+02   0.153E+02 -.153E+02 -.153E+02
   -.141E+02 0.141E+02 -.141E+02   0.291E+02 -.292E+02 0.291E+02   -.153E+02 0.153E+02 -.153E+02
   -.141E+02 -.141E+02 0.141E+02   0.291E+02 0.292E+02 -.291E+02   -.153E+02 -.153E+02 0.153E+02
   -.435E+02 -.201E+02 0.260E+02   0.491E+02 0.225E+02 -.297E+02   -.568E+01 -.238E+01 0.373E+01
   -.201E+02 0.260E+02 -.435E+02   0.225E+02 -.297E+02 0.491E+02   -.238E+01 0.373E+01 -.568E+01
   0.260E+02 -.435E+02 -.201E+02   -.297E+02 0.491E+02 0.225E+02   0.373E+01 -.568E+01 -.238E+01
   -.435E+02 0.201E+02 -.260E+02   0.491E+02 -.225E+02 0.297E+02   -.568E+01 0.238E+01 -.373E+01
   -.201E+02 -.260E+02 0.435E+02   0.225E+02 0.297E+02 -.491E+02   -.238E+01 -.373E+01 0.568E+01
   0.260E+02 0.435E+02 0.201E+02   -.297E+02 -.491E+02 -.225E+02   0.373E+01 0.568E+01 0.238E+01
   0.201E+02 0.260E+02 0.435E+02   -.225E+02 -.297E+02 -.491E+02   0.238E+01 0.373E+01 0.568E+01
   -.260E+02 -.435E+02 0.201E+02   0.297E+02 0.491E+02 -.225E+02   -.373E+01 -.568E+01 0.238E+01
   -.260E+02 0.435E+02 -.201E+02   0.297E+02 -.491E+02 0.225E+02   -.373E+01 0.568E+01 -.238E+01
   0.435E+02 0.201E+02 0.260E+02   -.491E+02 -.225E+02 -.297E+02   0.568E+01 0.238E+01 0.373E+01
   0.201E+02 -.260E+02 -.435E+02   -.225E+02 0.297E+02 0.491E+02   0.238E+01 -.373E+01 -.568E+01
   0.435E+02 -.201E+02 -.260E+02   -.491E+02 0.225E+02 0.297E+02   0.568E+01 -.238E+01 -.373E+01
 -----------------------------------------------------------------------------------------------
   0.157E-02 0.108E-03 0.105E-03   0.284E-13 -.355E-14 0.320E-13   -.157E-02 -.108E-03 -.105E-03


 POSITION                                       TOTAL-FORCE (eV/Angst)
 -----------------------------------------------------------------------------------
      1.04471      1.04468      1.04473         0.067804      0.064539      0.068492
      3.60996      1.52057      4.08578         0.067810     -0.064457     -0.068596
      4.08581      3.60993      1.52052        -0.068621      0.064450     -0.067767
      1.52056      4.08583      3.60998        -0.068455     -0.064631      0.067766
      1.86198      1.39632      0.53263        -0.065793     -0.019053      0.042244
      1.39638      0.53260      1.86208        -0.020134      0.043416     -0.067828
      0.53257      1.86191      1.39634         0.041962     -0.065039     -0.019089
      4.42723      1.16894      4.59787        -0.065757      0.019031     -0.042218
      3.96164      2.03265      3.26842        -0.020168     -0.043458      0.067905
      3.09782      0.70334      3.73416         0.041954      0.065021      0.019089
      3.73412      3.09786      0.70317         0.020121      0.043318      0.067624
      4.59793      4.42716      1.16892        -0.041667     -0.064625      0.018853
      2.03269      3.26859      3.96158        -0.041742      0.064758     -0.018909
      0.70327      3.73419      3.09788         0.066281      0.019273      0.042509
      1.16888      4.59790      4.42733         0.020075     -0.043264     -0.067547
      3.26852      3.96157      2.03262         0.066329     -0.019279     -0.042528
 -----------------------------------------------------------------------------------
    total drift:                                0.000000      0.000000     -0.000000


--------------------------------------------------------------------------------------------------------



  FREE ENERGIE OF THE ION-ELECTRON SYSTEM (eV)
  ---------------------------------------------------
  free  energy   TOTEN  =       -78.35962889 eV

  energy  without entropy=      -78.35962889  energy(sigma->0) =      -78.35962889



--------------------------------------------------------------------------------------------------------


    POTLOK:  cpu time      0.0795: real time      0.0795


--------------------------------------------------------------------------------------------------------


 stress matrix after NEB project (eV)
     -1.37587      0.00000     -0.00000
      0.00000     -1.37589      0.00000
     -0.00000      0.00000     -1.37585
  FORCES: max atom, RMS     0.116010    0.091062
  FORCE total and by dimension    0.364249    0.068621
  Stress total and by dimension    2.383081    1.375894
     LOOP+:  cpu time    458.8470: real time    459.2881
    4ORBIT:  cpu time      0.0000: real time      0.0000

 total amount of memory used by VASP MPI-rank0    93629. kBytes
=======================================================================

   base      :      30000. kBytes
   nonl-proj :      41533. kBytes
   fftplans  :       2758. kBytes
   grid      :       3834. kBytes
   one-center:         24. kBytes
   wavefun   :      15480. kBytes

  
  
 General timing and accounting informations for this job:
 ========================================================
  
                  Total CPU time used (sec):      482.148
                            User time (sec):      479.661
                          System time (sec):        2.487
                         Elapsed time (sec):      485.663
  
                   Maximum memory used (kb):      322896.
                   Average memory used (kb):          N/A
  
                          Minor page faults:        64718
                          Major page faults:         1175
                 Voluntary context switches:         6198
