 vasp.6.4.1 05Apr23 (build Jun  6 2023 14:36:51) complex                         
 executed on        HPECrayEX_GCC date 2024.08.20  14:36:16
 running  256 mpi-ranks, with    1 threads/rank, on    2 nodes
 distrk:  each k-point on  128 cores,    2 groups
 distr:  one band on NCORE=  32 cores,    4 groups


--------------------------------------------------------------------------------------------------------


 INCAR:
   ALGO = Conjugate
   KPAR = 2
   NCORE = 32
   ISMEAR = 0
   SIGMA = 0.01
   PREC = Accurate
   EDIFF = 1E-7
   ENCUT = 1000
   ISIF = 0
   METAGGA = SCAN
   LUSE_VDW = .TRUE.
   BPARAM = 15.7
   LASPH = .TRUE.
   SYMPREC = 1E-7
   NELM = 200
   LWAVE = .FALSE.
   LCHARGE = .FALSE.

 POTCAR:    PAW_PBE N_h 06Feb2004                 
 POTCAR:    PAW_PBE H_h 06Feb2004                 
 -----------------------------------------------------------------------------
|                                                                             |
|               ----> ADVICE to this user running VASP <----                  |
|                                                                             |
|     You have switched on vdW-DFT.                                           |
|     This routine was written and supplied by Jiri Klimes. We recommend      |
|     that you carefully read and cite the following publications:            |
|       J. Klimes, D.R. Bowler, A. Michelides                                 |
|          J. Phys.: Cond Matt. 22 022201 (2010)                              |
|       J. Klimes, D.R. Bowler, A. Michelides                                 |
|          Phys. Rev. B. 83, 195131 (2011)                                    |
|     and references therein.                                                 |
|                                                                             |
 -----------------------------------------------------------------------------

 POTCAR:    PAW_PBE N_h 06Feb2004                 
   VRHFIN =N: s2p3                                                                                  
   LEXCH  = PE                                                                                      
   EATOM  =   264.5486 eV,   19.4438 Ry                                                             
                                                                                                    
   TITEL  = PAW_PBE N_h 06Feb2004                                                                   
   LULTRA =        F    use ultrasoft PP ?                                                          
   IUNSCR =        1    unscreen: 0-lin 1-nonlin 2-no                                               
   RPACOR =    0.800    partial core radius                                                         
   POMASS =   14.001; ZVAL   =    5.000    mass and valenz                                          
   RCORE  =    1.100    outmost cutoff radius                                                       
   RWIGS  =    1.480; RWIGS  =    0.783    wigner-seitz radius (au A)                               
   ENMAX  =  700.000; ENMIN  =  500.000 eV                                                          
   ICORE  =        2    local potential                                                             
   LCOR   =        T    correct aug charges                                                         
   LPAW   =        T    paw PP                                                                      
   EAUG   =  904.640                                                                                
   DEXC   =    0.000                                                                                
   RMAX   =    1.127    core radius for proj-oper                                                   
   RAUG   =    1.300    factor for augmentation sphere                                              
   RDEP   =    1.115    radius for radial grids                                                     
   RDEPT  =    1.106    core radius for aug-charge                                                  
                                                                                                    
   Atomic configuration                                                                             
    4 entries                                                                                       
     n  l   j            E        occ.                                                              
     1  0  0.50      -384.7179   2.0000                                                             
     2  0  0.50       -18.5828   2.0000                                                             
     2  1  0.50        -7.0898   3.0000                                                             
     3  2  1.50        -6.8029   0.0000                                                             
   Description                                                                                      
     l       E           TYP  RCUT    TYP  RCUT                                                     
     0    -18.5828117     23  1.100                                                                 
     0    -15.0750597     23  1.100                                                                 
     1     -7.0897851     23  1.100                                                                 
     1     -1.9663412     23  1.100                                                                 
     2     -6.8029130      7  1.100                                                                 
  local pseudopotential read in
  partial core-charges read in
  partial kinetic energy density read in
  kinetic energy density of atom read in
  atomic valenz-charges read in
  non local Contribution for L=           0  read in
    real space projection operators read in
  non local Contribution for L=           0  read in
    real space projection operators read in
  non local Contribution for L=           1  read in
    real space projection operators read in
  non local Contribution for L=           1  read in
    real space projection operators read in
    PAW grid and wavefunctions read in

   number of l-projection  operators is LMAX  =           4
   number of lm-projection operators is LMMAX =           8

 POTCAR:    PAW_PBE H_h 06Feb2004                 
   VRHFIN =H: ultrasoft test                                                                        
   LEXCH  = PE                                                                                      
   EATOM  =    12.4884 eV,    0.9179 Ry                                                             
                                                                                                    
   TITEL  = PAW_PBE H_h 06Feb2004                                                                   
   LULTRA =        F    use ultrasoft PP ?                                                          
   IUNSCR =        0    unscreen: 0-lin 1-nonlin 2-no                                               
   RPACOR =    0.000    partial core radius                                                         
   POMASS =    1.000; ZVAL   =    1.000    mass and valenz                                          
   RCORE  =    0.800    outmost cutoff radius                                                       
   RWIGS  =    0.700; RWIGS  =    0.370    wigner-seitz radius (au A)                               
   ENMAX  =  700.000; ENMIN  =  350.000 eV                                                          
   RCLOC  =    0.701    cutoff for local pot                                                        
   LCOR   =        T    correct aug charges                                                         
   LPAW   =        T    paw PP                                                                      
   EAUG   = 1000.000                                                                                
   RMAX   =    0.819    core radius for proj-oper                                                   
   RAUG   =    1.000    factor for augmentation sphere                                              
   RDEP   =    0.817    radius for radial grids                                                     
   RDEPT  =    0.817    core radius for aug-charge                                                  
                                                                                                    
   Atomic configuration                                                                             
    2 entries                                                                                       
     n  l   j            E        occ.                                                              
     1  0  0.50        -6.4927   1.0000                                                             
     2  1  0.50        -3.4015   0.0000                                                             
   Description                                                                                      
     l       E           TYP  RCUT    TYP  RCUT                                                     
     0     -6.4927493     23  0.800                                                                 
     0      6.8029130     23  0.800                                                                 
     1     -6.8029130     23  0.800                                                                 
  local pseudopotential read in
  atomic valenz-charges read in
  non local Contribution for L=           0  read in
    real space projection operators read in
  non local Contribution for L=           0  read in
    real space projection operators read in
  non local Contribution for L=           1  read in
    real space projection operators read in
    PAW grid and wavefunctions read in

   number of l-projection  operators is LMAX  =           3
   number of lm-projection operators is LMMAX =           5

  PAW_PBE N_h 06Feb2004                 :
 energy of atom  1       EATOM= -264.5486
 kinetic energy error for atom=    0.0081 (will be added to EATOM!!)
  PAW_PBE H_h 06Feb2004                 :
 energy of atom  2       EATOM=  -12.4884
 kinetic energy error for atom=    0.0006 (will be added to EATOM!!)


 POSCAR:  N  H
  positions in cartesian coordinates
  No initial velocities read in

 METAGGA = SCAN                                        LMAXTAU =  6    LMIXTAU =  F

 exchange correlation table for  LEXCH =        8
   RHO(1)=    0.500       N(1)  =     2000
   RHO(2)=  100.500       N(2)  =     4000

 VTST: version 4.1, (05/19/21)

 CHAIN: initializing optimizer
 
 OPT: Using VASP Dynamics algorithm
 CHAIN: Read ICHAIN            0

 POSCAR:  N  H
  positions in cartesian coordinates
  No initial velocities read in



--------------------------------------------------------------------------------------------------------


 ion  position               nearest neighbor table
   1  0.204  0.204  0.204-   7 1.03   5 1.03   6 1.03
   2  0.704  0.296  0.796-  10 1.03   8 1.03   9 1.03
   3  0.796  0.704  0.296-  12 1.03  16 1.03  11 1.03
   4  0.296  0.796  0.704-  13 1.03  14 1.03  15 1.03
   5  0.363  0.272  0.104-   1 1.03
   6  0.272  0.104  0.363-   1 1.03
   7  0.104  0.363  0.272-   1 1.03
   8  0.863  0.228  0.896-   2 1.03
   9  0.772  0.396  0.637-   2 1.03
  10  0.604  0.137  0.728-   2 1.03
  11  0.728  0.604  0.137-   3 1.03
  12  0.896  0.863  0.228-   3 1.03
  13  0.396  0.637  0.772-   4 1.03
  14  0.137  0.728  0.604-   4 1.03
  15  0.228  0.896  0.863-   4 1.03
  16  0.637  0.772  0.396-   3 1.03

  LATTYP: Found a simple cubic cell.
 ALAT       =     5.1305000000
  
  Lattice vectors:
  
 A1 = (   5.1305000000,   0.0000000000,   0.0000000000)
 A2 = (   0.0000000000,   5.1305000000,   0.0000000000)
 A3 = (   0.0000000000,   0.0000000000,   5.1305000000)


Analysis of symmetry for initial positions (statically):
=====================================================================
 Subroutine PRICEL returns:
 Original cell was already a primitive cell.
 

 Routine SETGRP: Setting up the symmetry group for a 
 simple cubic supercell.


 Subroutine GETGRP returns: Found  1 space group operations
 (whereof  1 operations were pure point group operations)
 out of a pool of 48 trial point group operations.


The static configuration has the point symmetry C_1 .


Analysis of symmetry for dynamics (positions and initial velocities):
=====================================================================
 Subroutine PRICEL returns:
 Original cell was already a primitive cell.
 

 Routine SETGRP: Setting up the symmetry group for a 
 simple cubic supercell.


 Subroutine GETGRP returns: Found  1 space group operations
 (whereof  1 operations were pure point group operations)
 out of a pool of 48 trial point group operations.


The dynamic configuration has the point symmetry C_1 .


 Subroutine INISYM returns: Found  1 space group operations
 (whereof  1 operations are pure point group operations),
 and found     1 'primitive' translations


----------------------------------------------------------------------------------------

                                     Primitive cell                                     

  volume of cell :     135.0452

  direct lattice vectors                    reciprocal lattice vectors
     5.130500000  0.000000000  0.000000000     0.194912777  0.000000000  0.000000000
     0.000000000  5.130500000  0.000000000     0.000000000  0.194912777  0.000000000
     0.000000000  0.000000000  5.130500000     0.000000000  0.000000000  0.194912777

  length of vectors
     5.130500000  5.130500000  5.130500000     0.194912777  0.194912777  0.194912777

  position of ions in fractional coordinates (direct lattice)
     0.203627113  0.203621431  0.203630403
     0.703627029  0.296379224  0.796369782
     0.796376204  0.703621086  0.296368680
     0.296376360  0.796379870  0.703631030
     0.362924549  0.272160065  0.103816846
     0.272173110  0.103811414  0.362943826
     0.103803989  0.362910930  0.272163643
     0.862924359  0.227840758  0.896183154
     0.772173318  0.396189393  0.637055963
     0.603804049  0.137089872  0.727836227
     0.727828470  0.603811815  0.137056818
     0.896196011  0.862910103  0.227837673
     0.396196503  0.637090091  0.772162233
     0.137076124  0.727840763  0.603815983
     0.227828970  0.896188586  0.862942724
     0.637075505  0.772159890  0.396183698

  ion indices of the primitive-cell ions
   primitive index   ion index
                 1           1
                 2           2
                 3           3
                 4           4
                 5           5
                 6           6
                 7           7
                 8           8
                 9           9
                10          10
                11          11
                12          12
                13          13
                14          14
                15          15
                16          16

----------------------------------------------------------------------------------------



 KPOINTS: auto                                    

Automatic generation of k-mesh.
 Grid dimensions read from file:
 generate k-points for:    5    5    5

 Generating k-lattice:

  Cartesian coordinates                     Fractional coordinates (reciprocal lattice)
     0.038982555  0.000000000  0.000000000     0.200000000  0.000000000  0.000000000
     0.000000000  0.038982555  0.000000000     0.000000000  0.200000000  0.000000000
     0.000000000  0.000000000  0.038982555     0.000000000  0.000000000  0.200000000

  Length of vectors
     0.038982555  0.038982555  0.038982555

  Shift w.r.t. Gamma in fractional coordinates (k-lattice)
     0.000000000  0.000000000  0.000000000

 
 Subroutine IBZKPT returns following result:
 ===========================================
 
 Found     63 irreducible k-points:
 
 Following reciprocal coordinates:
            Coordinates               Weight
  0.000000  0.000000  0.000000      1.000000
  0.200000  0.000000  0.000000      2.000000
  0.000000  0.200000  0.000000      2.000000
  0.000000  0.000000  0.200000      2.000000
  0.400000  0.000000  0.000000      2.000000
  0.000000  0.400000  0.000000      2.000000
  0.000000  0.000000  0.400000      2.000000
  0.200000  0.200000  0.000000      2.000000
  0.000000  0.200000  0.200000      2.000000
  0.200000  0.000000  0.200000      2.000000
 -0.200000  0.200000  0.000000      2.000000
 -0.200000  0.000000  0.200000      2.000000
  0.000000 -0.200000  0.200000      2.000000
  0.400000  0.200000  0.000000      2.000000
  0.000000  0.400000  0.200000      2.000000
  0.200000  0.000000  0.400000      2.000000
 -0.200000  0.400000  0.000000      2.000000
 -0.400000  0.000000  0.200000      2.000000
  0.000000  0.200000  0.400000      2.000000
  0.000000 -0.400000  0.200000      2.000000
 -0.200000  0.000000  0.400000      2.000000
  0.400000  0.000000  0.200000      2.000000
  0.000000 -0.200000  0.400000      2.000000
  0.400000 -0.200000  0.000000      2.000000
  0.200000  0.400000  0.000000      2.000000
  0.400000  0.400000  0.000000      2.000000
  0.000000  0.400000  0.400000      2.000000
  0.400000  0.000000  0.400000      2.000000
 -0.400000  0.400000  0.000000      2.000000
 -0.400000  0.000000  0.400000      2.000000
  0.000000 -0.400000  0.400000      2.000000
  0.200000  0.200000  0.200000      2.000000
 -0.200000  0.200000  0.200000      2.000000
 -0.200000 -0.200000  0.200000      2.000000
  0.200000 -0.200000  0.200000      2.000000
  0.400000  0.200000  0.200000      2.000000
  0.200000  0.400000  0.200000      2.000000
  0.200000  0.200000  0.400000      2.000000
 -0.200000  0.400000  0.200000      2.000000
 -0.400000  0.200000  0.200000      2.000000
 -0.200000  0.200000  0.400000      2.000000
 -0.400000 -0.200000  0.200000      2.000000
 -0.200000 -0.400000  0.200000      2.000000
 -0.200000 -0.200000  0.400000      2.000000
  0.200000 -0.400000  0.200000      2.000000
  0.400000 -0.200000  0.200000      2.000000
  0.200000 -0.200000  0.400000      2.000000
  0.400000  0.400000  0.200000      2.000000
  0.200000  0.400000  0.400000      2.000000
  0.400000  0.200000  0.400000      2.000000
 -0.400000  0.400000  0.200000      2.000000
 -0.400000  0.200000  0.400000      2.000000
 -0.200000  0.400000  0.400000      2.000000
 -0.400000 -0.400000  0.200000      2.000000
 -0.200000 -0.400000  0.400000      2.000000
 -0.400000 -0.200000  0.400000      2.000000
  0.400000 -0.400000  0.200000      2.000000
  0.400000 -0.200000  0.400000      2.000000
  0.200000 -0.400000  0.400000      2.000000
  0.400000  0.400000  0.400000      2.000000
 -0.400000  0.400000  0.400000      2.000000
 -0.400000 -0.400000  0.400000      2.000000
  0.400000 -0.400000  0.400000      2.000000
 
 Following cartesian coordinates:
            Coordinates               Weight
  0.000000  0.000000  0.000000      1.000000
  0.038983  0.000000  0.000000      2.000000
  0.000000  0.038983  0.000000      2.000000
  0.000000  0.000000  0.038983      2.000000
  0.077965  0.000000  0.000000      2.000000
  0.000000  0.077965  0.000000      2.000000
  0.000000  0.000000  0.077965      2.000000
  0.038983  0.038983  0.000000      2.000000
  0.000000  0.038983  0.038983      2.000000
  0.038983  0.000000  0.038983      2.000000
 -0.038983  0.038983  0.000000      2.000000
 -0.038983  0.000000  0.038983      2.000000
  0.000000 -0.038983  0.038983      2.000000
  0.077965  0.038983  0.000000      2.000000
  0.000000  0.077965  0.038983      2.000000
  0.038983  0.000000  0.077965      2.000000
 -0.038983  0.077965  0.000000      2.000000
 -0.077965  0.000000  0.038983      2.000000
  0.000000  0.038983  0.077965      2.000000
  0.000000 -0.077965  0.038983      2.000000
 -0.038983  0.000000  0.077965      2.000000
  0.077965  0.000000  0.038983      2.000000
  0.000000 -0.038983  0.077965      2.000000
  0.077965 -0.038983  0.000000      2.000000
  0.038983  0.077965  0.000000      2.000000
  0.077965  0.077965  0.000000      2.000000
  0.000000  0.077965  0.077965      2.000000
  0.077965  0.000000  0.077965      2.000000
 -0.077965  0.077965  0.000000      2.000000
 -0.077965  0.000000  0.077965      2.000000
  0.000000 -0.077965  0.077965      2.000000
  0.038983  0.038983  0.038983      2.000000
 -0.038983  0.038983  0.038983      2.000000
 -0.038983 -0.038983  0.038983      2.000000
  0.038983 -0.038983  0.038983      2.000000
  0.077965  0.038983  0.038983      2.000000
  0.038983  0.077965  0.038983      2.000000
  0.038983  0.038983  0.077965      2.000000
 -0.038983  0.077965  0.038983      2.000000
 -0.077965  0.038983  0.038983      2.000000
 -0.038983  0.038983  0.077965      2.000000
 -0.077965 -0.038983  0.038983      2.000000
 -0.038983 -0.077965  0.038983      2.000000
 -0.038983 -0.038983  0.077965      2.000000
  0.038983 -0.077965  0.038983      2.000000
  0.077965 -0.038983  0.038983      2.000000
  0.038983 -0.038983  0.077965      2.000000
  0.077965  0.077965  0.038983      2.000000
  0.038983  0.077965  0.077965      2.000000
  0.077965  0.038983  0.077965      2.000000
 -0.077965  0.077965  0.038983      2.000000
 -0.077965  0.038983  0.077965      2.000000
 -0.038983  0.077965  0.077965      2.000000
 -0.077965 -0.077965  0.038983      2.000000
 -0.038983 -0.077965  0.077965      2.000000
 -0.077965 -0.038983  0.077965      2.000000
  0.077965 -0.077965  0.038983      2.000000
  0.077965 -0.038983  0.077965      2.000000
  0.038983 -0.077965  0.077965      2.000000
  0.077965  0.077965  0.077965      2.000000
 -0.077965  0.077965  0.077965      2.000000
 -0.077965 -0.077965  0.077965      2.000000
  0.077965 -0.077965  0.077965      2.000000
 


--------------------------------------------------------------------------------------------------------




 Dimension of arrays:
   k-points           NKPTS =     63   k-points in BZ     NKDIM =     63   number of bands    NBANDS=     28
   number of dos      NEDOS =    301   number of ions     NIONS =     16
   non local maximal  LDIM  =      4   non local SUM 2l+1 LMDIM =      8
   total plane-waves  NPLWV = 157464
   max r-space proj   IRMAX =      1   max aug-charges    IRDMAX=   8480
   dimension x,y,z NGX =    54 NGY =   54 NGZ =   54
   dimension x,y,z NGXF=   108 NGYF=  108 NGZF=  108
   support grid    NGXF=   108 NGYF=  108 NGZF=  108
   ions per type =               4  12
   NGX,Y,Z   is equivalent  to a cutoff of  17.50, 17.50, 17.50 a.u.
   NGXF,Y,Z  is equivalent  to a cutoff of  35.00, 35.00, 35.00 a.u.

 SYSTEM =  unknown system                          
 POSCAR =   N  H                                   

 Startparameter for this run:
   NWRITE =      2    write-flag & timer
   PREC   = accura    normal or accurate (medium, high low for compatibility)
   ISTART =      0    job   : 0-new  1-cont  2-samecut
   ICHARG =      2    charge: 1-file 2-atom 10-const
   ISPIN  =      1    spin polarized calculation?
   LNONCOLLINEAR =      F non collinear calculations
   LSORBIT =      F    spin-orbit coupling
   INIWAV =      1    electr: 0-lowe 1-rand  2-diag
   LASPH  =      T    aspherical Exc in radial PAW
 Electronic Relaxation 1
   ENCUT  = 1000.0 eV  73.50 Ry    8.57 a.u.  13.23 13.23 13.23*2*pi/ulx,y,z
   ENINI  = 1000.0     initial cutoff
   ENAUG  = 1000.0 eV  augmentation charge cutoff
   NELM   =    200;   NELMIN=  2; NELMDL= -5     # of ELM steps 
   EDIFF  = 0.1E-06   stopping-criterion for ELM
   LREAL  =      F    real-space projection
   NLSPLINE    = F    spline interpolate recip. space projectors
   LCOMPAT=      F    compatible to vasp.4.4
   GGA_COMPAT  = T    GGA compatible to vasp.4.4-vasp.4.6
   LMAXPAW     = -100 max onsite density
   LMAXMIX     =    2 max onsite mixed and CHGCAR
   VOSKOWN=      0    Vosko Wilk Nusair interpolation
   ROPT   =    0.00000   0.00000
 Ionic relaxation
   EDIFFG = 0.1E-05   stopping-criterion for IOM
   NSW    =      0    number of steps for IOM
   NBLOCK =      1;   KBLOCK =      1    inner block; outer block 
   IBRION =     -1    ionic relax: 0-MD 1-quasi-New 2-CG
   NFREE  =      0    steps in history (QN), initial steepest desc. (CG)
   ISIF   =      0    stress and relaxation
   IWAVPR =     10    prediction:  0-non 1-charg 2-wave 3-comb
   ISYM   =      2    0-nonsym 1-usesym 2-fastsym
   LCORR  =      T    Harris-Foulkes like correction to forces

   POTIM  = 0.5000    time-step for ionic-motion
   TEIN   =    0.0    initial temperature
   TEBEG  =    0.0;   TEEND  =   0.0 temperature during run
   SMASS  =  -3.00    Nose mass-parameter (am)
   estimated Nose-frequenzy (Omega)   =  0.10E-29 period in steps = 0.13E+47 mass=  -0.602E-27a.u.
   SCALEE = 1.0000    scale energy and forces
   NPACO  =    256;   APACO  = 10.0  distance and # of slots for P.C.
   PSTRESS=    0.0 pullay stress

  Mass of Ions in am
   POMASS =  14.00  1.00
  Ionic Valenz
   ZVAL   =   5.00  1.00
  Atomic Wigner-Seitz radii
   RWIGS  =  -1.00 -1.00
  virtual crystal weights 
   VCA    =   1.00  1.00
   NELECT =      32.0000    total number of electrons
   NUPDOWN=      -1.0000    fix difference up-down

 DOS related values:
   EMIN   =  10.00;   EMAX   =-10.00  energy-range for DOS
   EFERMI =   0.00;   METHOD = LEGACY      
   ISMEAR =     0;   SIGMA  =   0.01  broadening in eV -4-tet -1-fermi 0-gaus

 Electronic relaxation 2 (details)
   IALGO  =     58    algorithm
   LDIAG  =      T    sub-space diagonalisation (order eigenvalues)
   LSUBROT=      F    optimize rotation matrix (better conditioning)
   TURBO    =      0    0=normal 1=particle mesh
   IRESTART =      0    0=no restart 2=restart with 2 vectors
   NREBOOT  =      0    no. of reboots
   NMIN     =      0    reboot dimension
   EREF     =   0.00    reference energy to select bands
   IMIX   =      4    mixing-type and parameters
     AMIX     =   0.40;   BMIX     =  1.00
     AMIX_MAG =   1.60;   BMIX_MAG =  1.00
     AMIN     =   0.10
     WC   =   100.;   INIMIX=   1;  MIXPRE=   1;  MAXMIX= -45

 Intra band minimization:
   WEIMIN = 0.0000     energy-eigenvalue tresh-hold
   EBREAK =  0.89E-09  absolut break condition
   DEPER  =   0.30     relativ break condition  

   TIME   =   0.40     timestep for ELM

  volume/ion in A,a.u.               =       8.44        56.96
  Fermi-wavevector in a.u.,A,eV,Ry     =   1.013052  1.914391 13.963314  1.026275
  Thomas-Fermi vector in A             =   2.146198

 Write flags
   LWAVE        =      F    write WAVECAR
   LDOWNSAMPLE  =      F    k-point downsampling of WAVECAR
   LCHARG       =      T    write CHGCAR
   LVTOT        =      F    write LOCPOT, total local potential
   LVHAR        =      F    write LOCPOT, Hartree potential only
   LELF         =      F    write electronic localiz. function (ELF)
   LORBIT       =      0    0 simple, 1 ext, 2 COOP (PROOUT), +10 PAW based schemes


 Dipole corrections
   LMONO  =      F    monopole corrections only (constant potential shift)
   LDIPOL =      F    correct potential (dipole corrections)
   IDIPOL =      0    1-x, 2-y, 3-z, 4-all directions 
   EPSILON=  1.0000000 bulk dielectric constant

 Exchange correlation treatment:
   GGA     =    --    GGA type
   LEXCH   =     8    internal setting for exchange type
   LIBXC   =     F    Libxc                    
   VOSKOWN =     0    Vosko Wilk Nusair interpolation
   LHFCALC =     F    Hartree Fock is set to
   LHFONE  =     F    Hartree Fock one center treatment
   AEXX    =    0.0000 exact exchange contribution

 vdW DFT:
   LUSE_VDW   =     T    switch on vdW DFT
   IVDW_NL    =     2    kernel type
   LSPIN_VDW  =     F    use spin-polarized vdW DFT
   Zab_VDW    =-.8491    correlation parameter
   PARAM1     =0.1234
   PARAM2     =1.0000
   PARAM3     =0.0000
   -- rVV10 --
   BPARAM     =15.7000
   CPARAM     = 0.0093

 Linear response parameters
   LEPSILON=     F    determine dielectric tensor
   LRPA    =     F    only Hartree local field effects (RPA)
   LNABLA  =     F    use nabla operator in PAW spheres
   LVEL    =     F    velocity operator in full k-point grid
   CSHIFT  =0.1000    complex shift for real part using Kramers Kronig
   OMEGAMAX=  -1.0    maximum frequency
   DEG_THRESHOLD= 0.2000000E-02 threshold for treating states as degnerate
   RTIME   =   -0.100 relaxation time in fs
  (WPLASMAI=    0.000 imaginary part of plasma frequency in eV, 0.658/RTIME)
   DFIELD  = 0.0000000 0.0000000 0.0000000 field for delta impulse in time

  Optional k-point grid parameters
   LKPOINTS_OPT  =     F    use optional k-point grid
   KPOINTS_OPT_MODE=     1    mode for optional k-point grid

 Orbital magnetization related:
   ORBITALMAG=     F  switch on orbital magnetization
   LCHIMAG   =     F  perturbation theory with respect to B field
   DQ        =  0.001000  dq finite difference perturbation B field
   LLRAUG    =     F  two centre corrections for induced B field
   LBONE     =     F  B-component reconstruction in AE one-centre
   LVGVCALC  =     T  calculate vGv susceptibility
   LVGVAPPL  =     F  apply vGv susceptibility instead of pGv for G=0

 Random number generation:
   RANDOM_GENERATOR = DEFAULT
   PCG_SEED         = not used


--------------------------------------------------------------------------------------------------------


 Static calculation
 charge density and potential will be updated during run
 non-spin polarized calculation
 Conjugate gradient for all bands (Freysoldt, et al. PRB 79, 241103 (2009))
 preconditioned conjugated gradient                                        
 perform sub-space diagonalisation
    before iterative eigenvector-optimisation
 modified Broyden-mixing scheme, WC =      100.0
 initial mixing is a Kerker type mixing with AMIX =  0.4000 and BMIX =      1.0000
 Hartree-type preconditioning will be used
 using additional bands           12
 reciprocal scheme for non local part
 use partial core corrections
 no Harris-corrections to forces 
 use gradient corrections 
 use of overlap-Matrix (Vanderbilt PP)
 Gauss-broadening in eV      SIGMA  =   0.01


--------------------------------------------------------------------------------------------------------


  energy-cutoff  :     1000.00
  volume of cell :      135.05
      direct lattice vectors                 reciprocal lattice vectors
     5.130500000  0.000000000  0.000000000     0.194912777  0.000000000  0.000000000
     0.000000000  5.130500000  0.000000000     0.000000000  0.194912777  0.000000000
     0.000000000  0.000000000  5.130500000     0.000000000  0.000000000  0.194912777

  length of vectors
     5.130500000  5.130500000  5.130500000     0.194912777  0.194912777  0.194912777



 k-points in units of 2pi/SCALE and weight: auto                                    
   0.00000000  0.00000000  0.00000000       0.008
   0.03898256  0.00000000  0.00000000       0.016
   0.00000000  0.03898256  0.00000000       0.016
   0.00000000  0.00000000  0.03898256       0.016
   0.07796511  0.00000000  0.00000000       0.016
   0.00000000  0.07796511  0.00000000       0.016
   0.00000000  0.00000000  0.07796511       0.016
   0.03898256  0.03898256  0.00000000       0.016
   0.00000000  0.03898256  0.03898256       0.016
   0.03898256  0.00000000  0.03898256       0.016
  -0.03898256  0.03898256  0.00000000       0.016
  -0.03898256  0.00000000  0.03898256       0.016
   0.00000000 -0.03898256  0.03898256       0.016
   0.07796511  0.03898256  0.00000000       0.016
   0.00000000  0.07796511  0.03898256       0.016
   0.03898256  0.00000000  0.07796511       0.016
  -0.03898256  0.07796511  0.00000000       0.016
  -0.07796511  0.00000000  0.03898256       0.016
   0.00000000  0.03898256  0.07796511       0.016
   0.00000000 -0.07796511  0.03898256       0.016
  -0.03898256  0.00000000  0.07796511       0.016
   0.07796511  0.00000000  0.03898256       0.016
   0.00000000 -0.03898256  0.07796511       0.016
   0.07796511 -0.03898256  0.00000000       0.016
   0.03898256  0.07796511  0.00000000       0.016
   0.07796511  0.07796511  0.00000000       0.016
   0.00000000  0.07796511  0.07796511       0.016
   0.07796511  0.00000000  0.07796511       0.016
  -0.07796511  0.07796511  0.00000000       0.016
  -0.07796511  0.00000000  0.07796511       0.016
   0.00000000 -0.07796511  0.07796511       0.016
   0.03898256  0.03898256  0.03898256       0.016
  -0.03898256  0.03898256  0.03898256       0.016
  -0.03898256 -0.03898256  0.03898256       0.016
   0.03898256 -0.03898256  0.03898256       0.016
   0.07796511  0.03898256  0.03898256       0.016
   0.03898256  0.07796511  0.03898256       0.016
   0.03898256  0.03898256  0.07796511       0.016
  -0.03898256  0.07796511  0.03898256       0.016
  -0.07796511  0.03898256  0.03898256       0.016
  -0.03898256  0.03898256  0.07796511       0.016
  -0.07796511 -0.03898256  0.03898256       0.016
  -0.03898256 -0.07796511  0.03898256       0.016
  -0.03898256 -0.03898256  0.07796511       0.016
   0.03898256 -0.07796511  0.03898256       0.016
   0.07796511 -0.03898256  0.03898256       0.016
   0.03898256 -0.03898256  0.07796511       0.016
   0.07796511  0.07796511  0.03898256       0.016
   0.03898256  0.07796511  0.07796511       0.016
   0.07796511  0.03898256  0.07796511       0.016
  -0.07796511  0.07796511  0.03898256       0.016
  -0.07796511  0.03898256  0.07796511       0.016
  -0.03898256  0.07796511  0.07796511       0.016
  -0.07796511 -0.07796511  0.03898256       0.016
  -0.03898256 -0.07796511  0.07796511       0.016
  -0.07796511 -0.03898256  0.07796511       0.016
   0.07796511 -0.07796511  0.03898256       0.016
   0.07796511 -0.03898256  0.07796511       0.016
   0.03898256 -0.07796511  0.07796511       0.016
   0.07796511  0.07796511  0.07796511       0.016
  -0.07796511  0.07796511  0.07796511       0.016
  -0.07796511 -0.07796511  0.07796511       0.016
   0.07796511 -0.07796511  0.07796511       0.016

 k-points in reciprocal lattice and weights: auto                                    
   0.00000000  0.00000000  0.00000000       0.008
   0.20000000  0.00000000  0.00000000       0.016
   0.00000000  0.20000000  0.00000000       0.016
   0.00000000  0.00000000  0.20000000       0.016
   0.40000000  0.00000000  0.00000000       0.016
   0.00000000  0.40000000  0.00000000       0.016
   0.00000000  0.00000000  0.40000000       0.016
   0.20000000  0.20000000  0.00000000       0.016
   0.00000000  0.20000000  0.20000000       0.016
   0.20000000  0.00000000  0.20000000       0.016
  -0.20000000  0.20000000  0.00000000       0.016
  -0.20000000  0.00000000  0.20000000       0.016
   0.00000000 -0.20000000  0.20000000       0.016
   0.40000000  0.20000000  0.00000000       0.016
   0.00000000  0.40000000  0.20000000       0.016
   0.20000000  0.00000000  0.40000000       0.016
  -0.20000000  0.40000000  0.00000000       0.016
  -0.40000000  0.00000000  0.20000000       0.016
   0.00000000  0.20000000  0.40000000       0.016
   0.00000000 -0.40000000  0.20000000       0.016
  -0.20000000  0.00000000  0.40000000       0.016
   0.40000000  0.00000000  0.20000000       0.016
   0.00000000 -0.20000000  0.40000000       0.016
   0.40000000 -0.20000000  0.00000000       0.016
   0.20000000  0.40000000  0.00000000       0.016
   0.40000000  0.40000000  0.00000000       0.016
   0.00000000  0.40000000  0.40000000       0.016
   0.40000000  0.00000000  0.40000000       0.016
  -0.40000000  0.40000000  0.00000000       0.016
  -0.40000000  0.00000000  0.40000000       0.016
   0.00000000 -0.40000000  0.40000000       0.016
   0.20000000  0.20000000  0.20000000       0.016
  -0.20000000  0.20000000  0.20000000       0.016
  -0.20000000 -0.20000000  0.20000000       0.016
   0.20000000 -0.20000000  0.20000000       0.016
   0.40000000  0.20000000  0.20000000       0.016
   0.20000000  0.40000000  0.20000000       0.016
   0.20000000  0.20000000  0.40000000       0.016
  -0.20000000  0.40000000  0.20000000       0.016
  -0.40000000  0.20000000  0.20000000       0.016
  -0.20000000  0.20000000  0.40000000       0.016
  -0.40000000 -0.20000000  0.20000000       0.016
  -0.20000000 -0.40000000  0.20000000       0.016
  -0.20000000 -0.20000000  0.40000000       0.016
   0.20000000 -0.40000000  0.20000000       0.016
   0.40000000 -0.20000000  0.20000000       0.016
   0.20000000 -0.20000000  0.40000000       0.016
   0.40000000  0.40000000  0.20000000       0.016
   0.20000000  0.40000000  0.40000000       0.016
   0.40000000  0.20000000  0.40000000       0.016
  -0.40000000  0.40000000  0.20000000       0.016
  -0.40000000  0.20000000  0.40000000       0.016
  -0.20000000  0.40000000  0.40000000       0.016
  -0.40000000 -0.40000000  0.20000000       0.016
  -0.20000000 -0.40000000  0.40000000       0.016
  -0.40000000 -0.20000000  0.40000000       0.016
   0.40000000 -0.40000000  0.20000000       0.016
   0.40000000 -0.20000000  0.40000000       0.016
   0.20000000 -0.40000000  0.40000000       0.016
   0.40000000  0.40000000  0.40000000       0.016
  -0.40000000  0.40000000  0.40000000       0.016
  -0.40000000 -0.40000000  0.40000000       0.016
   0.40000000 -0.40000000  0.40000000       0.016

 position of ions in fractional coordinates (direct lattice) 
   0.20362711  0.20362143  0.20363040
   0.70362703  0.29637922  0.79636978
   0.79637620  0.70362109  0.29636868
   0.29637636  0.79637987  0.70363103
   0.36292455  0.27216007  0.10381685
   0.27217311  0.10381141  0.36294383
   0.10380399  0.36291093  0.27216364
   0.86292436  0.22784076  0.89618315
   0.77217332  0.39618939  0.63705596
   0.60380405  0.13708987  0.72783623
   0.72782847  0.60381181  0.13705682
   0.89619601  0.86291010  0.22783767
   0.39619650  0.63709009  0.77216223
   0.13707612  0.72784076  0.60381598
   0.22782897  0.89618859  0.86294272
   0.63707550  0.77215989  0.39618370

 position of ions in cartesian coordinates  (Angst):
   1.04470891  1.04467975  1.04472578
   3.60995847  1.52057361  4.08577516
   4.08580811  3.60992798  1.52051951
   1.52055891  4.08582692  3.60997900
   1.86198440  1.39631721  0.53263233
   1.39638414  0.53260446  1.86208330
   0.53256637  1.86191453  1.39633557
   4.42723342  1.16893701  4.59786767
   3.96163521  2.03264968  3.26841562
   3.09781668  0.70333959  3.73416376
   3.73412397  3.09785652  0.70317001
   4.59793363  4.42716029  1.16892118
   2.03268616  3.26859071  3.96157834
   0.70326905  3.73418703  3.09787790
   1.16887653  4.59789554  4.42732765
   3.26851588  3.96156632  2.03262046



--------------------------------------------------------------------------------------------------------


 k-point   1 :   0.0000 0.0000 0.0000  plane waves:    9771
 k-point   2 :   0.2000 0.0000 0.0000  plane waves:    9711
 k-point   3 :   0.0000 0.2000 0.0000  plane waves:    9711
 k-point   4 :   0.0000 0.0000 0.2000  plane waves:    9711
 k-point   5 :   0.4000 0.0000 0.0000  plane waves:    9722
 k-point   6 :   0.0000 0.4000 0.0000  plane waves:    9722
 k-point   7 :   0.0000 0.0000 0.4000  plane waves:    9722
 k-point   8 :   0.2000 0.2000 0.0000  plane waves:    9663
 k-point   9 :   0.0000 0.2000 0.2000  plane waves:    9663
 k-point  10 :   0.2000 0.0000 0.2000  plane waves:    9663
 k-point  11 :  -0.2000 0.2000 0.0000  plane waves:    9663
 k-point  12 :  -0.2000 0.0000 0.2000  plane waves:    9663
 k-point  13 :   0.0000-0.2000 0.2000  plane waves:    9663
 k-point  14 :   0.4000 0.2000 0.0000  plane waves:    9709
 k-point  15 :   0.0000 0.4000 0.2000  plane waves:    9709
 k-point  16 :   0.2000 0.0000 0.4000  plane waves:    9709
 k-point  17 :  -0.2000 0.4000 0.0000  plane waves:    9709
 k-point  18 :  -0.4000 0.0000 0.2000  plane waves:    9709
 k-point  19 :   0.0000 0.2000 0.4000  plane waves:    9709
 k-point  20 :   0.0000-0.4000 0.2000  plane waves:    9709
 k-point  21 :  -0.2000 0.0000 0.4000  plane waves:    9709
 k-point  22 :   0.4000 0.0000 0.2000  plane waves:    9709
 k-point  23 :   0.0000-0.2000 0.4000  plane waves:    9709
 k-point  24 :   0.4000-0.2000 0.0000  plane waves:    9709
 k-point  25 :   0.2000 0.4000 0.0000  plane waves:    9709
 k-point  26 :   0.4000 0.4000 0.0000  plane waves:    9690
 k-point  27 :   0.0000 0.4000 0.4000  plane waves:    9690
 k-point  28 :   0.4000 0.0000 0.4000  plane waves:    9690
 k-point  29 :  -0.4000 0.4000 0.0000  plane waves:    9690
 k-point  30 :  -0.4000 0.0000 0.4000  plane waves:    9690
 k-point  31 :   0.0000-0.4000 0.4000  plane waves:    9690
 k-point  32 :   0.2000 0.2000 0.2000  plane waves:    9714
 k-point  33 :  -0.2000 0.2000 0.2000  plane waves:    9714
 k-point  34 :  -0.2000-0.2000 0.2000  plane waves:    9714
 k-point  35 :   0.2000-0.2000 0.2000  plane waves:    9714
 k-point  36 :   0.4000 0.2000 0.2000  plane waves:    9701
 k-point  37 :   0.2000 0.4000 0.2000  plane waves:    9701
 k-point  38 :   0.2000 0.2000 0.4000  plane waves:    9701
 k-point  39 :  -0.2000 0.4000 0.2000  plane waves:    9701
 k-point  40 :  -0.4000 0.2000 0.2000  plane waves:    9701
 k-point  41 :  -0.2000 0.2000 0.4000  plane waves:    9701
 k-point  42 :  -0.4000-0.2000 0.2000  plane waves:    9701
 k-point  43 :  -0.2000-0.4000 0.2000  plane waves:    9701
 k-point  44 :  -0.2000-0.2000 0.4000  plane waves:    9701
 k-point  45 :   0.2000-0.4000 0.2000  plane waves:    9701
 k-point  46 :   0.4000-0.2000 0.2000  plane waves:    9701
 k-point  47 :   0.2000-0.2000 0.4000  plane waves:    9701
 k-point  48 :   0.4000 0.4000 0.2000  plane waves:    9707
 k-point  49 :   0.2000 0.4000 0.4000  plane waves:    9707
 k-point  50 :   0.4000 0.2000 0.4000  plane waves:    9707
 k-point  51 :  -0.4000 0.4000 0.2000  plane waves:    9707
 k-point  52 :  -0.4000 0.2000 0.4000  plane waves:    9707
 k-point  53 :  -0.2000 0.4000 0.4000  plane waves:    9707
 k-point  54 :  -0.4000-0.4000 0.2000  plane waves:    9707
 k-point  55 :  -0.2000-0.4000 0.4000  plane waves:    9707
 k-point  56 :  -0.4000-0.2000 0.4000  plane waves:    9707
 k-point  57 :   0.4000-0.4000 0.2000  plane waves:    9707
 k-point  58 :   0.4000-0.2000 0.4000  plane waves:    9707
 k-point  59 :   0.2000-0.4000 0.4000  plane waves:    9707
 k-point  60 :   0.4000 0.4000 0.4000  plane waves:    9688
 k-point  61 :  -0.4000 0.4000 0.4000  plane waves:    9688
 k-point  62 :  -0.4000-0.4000 0.4000  plane waves:    9688
 k-point  63 :   0.4000-0.4000 0.4000  plane waves:    9688

 maximum and minimum number of plane-waves per node :       328      277

 maximum number of plane-waves:      9771
 maximum index in each direction: 
   IXMAX=   13   IYMAX=   13   IZMAX=   13
   IXMIN=  -13   IYMIN=  -13   IZMIN=  -13


 parallel 3D FFT for wavefunctions:
    minimum data exchange during FFTs selected (reduces bandwidth)
 parallel 3D FFT for charge:
    minimum data exchange during FFTs selected (reduces bandwidth)


 total amount of memory used by VASP MPI-rank0    41619. kBytes
=======================================================================

   base      :      30000. kBytes
   nonl-proj :       2728. kBytes
   fftplans  :        601. kBytes
   grid      :       1177. kBytes
   one-center:          3. kBytes
   wavefun   :       7110. kBytes

     INWAV:  cpu time      0.0001: real time      0.0003
 Broyden mixing: mesh for mixing (old mesh)
   NGX = 27   NGY = 27   NGZ = 27
  (NGX  =108   NGY  =108   NGZ  =108)
  gives a total of  19683 points

 initial charge density was supplied:
 charge density of overlapping atoms calculated
 number of electron      32.0000000 magnetization 
 keeping initial charge density in first step


--------------------------------------------------------------------------------------------------------


 Maximum index for augmentation-charges            0 (set IRDMAX)


--------------------------------------------------------------------------------------------------------


 First call to EWALD:  gamma=   0.345
 Maximum number of real-space cells 3x 3x 3
 Maximum number of reciprocal cells 3x 3x 3

    FEWALD:  cpu time      0.0173: real time      0.0173


--------------------------------------- Ionic step        1  -------------------------------------------




--------------------------------------- Iteration      1(   1)  ---------------------------------------


    POTLOK:  cpu time      0.5086: real time      0.5092
    SETDIJ:  cpu time      0.3136: real time      0.3142
    TRIAL :  cpu time      1.3249: real time      1.3262
    CORREC:  cpu time      0.0032: real time      0.0032
    --------------------------------------------
      LOOP:  cpu time      2.1519: real time      2.1544

 eigenvalue-minimisations  :  3528
 total energy-change (2. order) : 0.2016400E+03  (-0.2351531E+04)
 number of electron      32.0000000 magnetization 
 augmentation part       32.0000000 magnetization 

 Free energy of the ion-electron system (eV)
  ---------------------------------------------------
  alpha Z        PSCENC =        20.96897804
  Ewald energy   TEWEN  =      -598.68038505
  -Hartree energ DENC   =      -427.01813708
  -exchange      EXHF   =         0.00000000
  -V(xc)+E(xc)   XCENC  =       118.12585400
  PAW double counting   =       819.22654376     -822.88675839
  entropy T*S    EENTRO =        -0.00012858
  eigenvalues    EBANDS =      -116.11110609
  atomic energy  EATOM  =      1208.01512009
  ---------------------------------------------------
  free energy    TOTEN  =       201.63998070 eV

  energy without entropy =      201.64010928  energy(sigma->0) =      201.64004499


--------------------------------------------------------------------------------------------------------




--------------------------------------- Iteration      1(   2)  ---------------------------------------


    TRIAL :  cpu time      1.5495: real time      1.5502
    CORREC:  cpu time      0.0003: real time      0.0003
    --------------------------------------------
      LOOP:  cpu time      1.5632: real time      1.5823

 eigenvalue-minimisations  :  4876
 total energy-change (2. order) :-0.2633260E+03  (-0.2466700E+03)
 number of electron      32.0000000 magnetization 
 augmentation part       32.0000000 magnetization 

 Free energy of the ion-electron system (eV)
  ---------------------------------------------------
  alpha Z        PSCENC =        20.96897804
  Ewald energy   TEWEN  =      -598.68038505
  -Hartree energ DENC   =      -427.01813708
  -exchange      EXHF   =         0.00000000
  -V(xc)+E(xc)   XCENC  =       118.12585400
  PAW double counting   =       819.22654376     -822.88675839
  entropy T*S    EENTRO =        -0.00000000
  eigenvalues    EBANDS =      -379.43720481
  atomic energy  EATOM  =      1208.01512009
  ---------------------------------------------------
  free energy    TOTEN  =       -61.68598943 eV

  energy without entropy =      -61.68598943  energy(sigma->0) =      -61.68598943


--------------------------------------------------------------------------------------------------------




--------------------------------------- Iteration      1(   3)  ---------------------------------------


    TRIAL :  cpu time      1.4742: real time      1.4745
    CORREC:  cpu time      0.0003: real time      0.0003
    --------------------------------------------
      LOOP:  cpu time      1.4862: real time      1.5046

 eigenvalue-minimisations  :  4552
 total energy-change (2. order) :-0.3942003E+02  (-0.3892909E+02)
 number of electron      32.0000000 magnetization 
 augmentation part       32.0000000 magnetization 

 Free energy of the ion-electron system (eV)
  ---------------------------------------------------
  alpha Z        PSCENC =        20.96897804
  Ewald energy   TEWEN  =      -598.68038505
  -Hartree energ DENC   =      -427.01813708
  -exchange      EXHF   =         0.00000000
  -V(xc)+E(xc)   XCENC  =       118.12585400
  PAW double counting   =       819.22654376     -822.88675839
  entropy T*S    EENTRO =        -0.00000000
  eigenvalues    EBANDS =      -418.85723742
  atomic energy  EATOM  =      1208.01512009
  ---------------------------------------------------
  free energy    TOTEN  =      -101.10602204 eV

  energy without entropy =     -101.10602204  energy(sigma->0) =     -101.10602204


--------------------------------------------------------------------------------------------------------




--------------------------------------- Iteration      1(   4)  ---------------------------------------


    TRIAL :  cpu time      1.4920: real time      1.4927
    CORREC:  cpu time      0.0003: real time      0.0003
    --------------------------------------------
      LOOP:  cpu time      1.5218: real time      1.5227

 eigenvalue-minimisations  :  4544
 total energy-change (2. order) :-0.1234312E+01  (-0.1230219E+01)
 number of electron      32.0000000 magnetization 
 augmentation part       32.0000000 magnetization 

 Free energy of the ion-electron system (eV)
  ---------------------------------------------------
  alpha Z        PSCENC =        20.96897804
  Ewald energy   TEWEN  =      -598.68038505
  -Hartree energ DENC   =      -427.01813708
  -exchange      EXHF   =         0.00000000
  -V(xc)+E(xc)   XCENC  =       118.12585400
  PAW double counting   =       819.22654376     -822.88675839
  entropy T*S    EENTRO =        -0.00000000
  eigenvalues    EBANDS =      -420.09154893
  atomic energy  EATOM  =      1208.01512009
  ---------------------------------------------------
  free energy    TOTEN  =      -102.34033356 eV

  energy without entropy =     -102.34033356  energy(sigma->0) =     -102.34033356


--------------------------------------------------------------------------------------------------------




--------------------------------------- Iteration      1(   5)  ---------------------------------------


    TRIAL :  cpu time      1.5233: real time      1.5238
    CORREC:  cpu time      0.0003: real time      0.0003
    CHARGE:  cpu time      0.1115: real time      0.1123
    --------------------------------------------
      LOOP:  cpu time      1.6472: real time      1.6665

 eigenvalue-minimisations  :  4576
 total energy-change (2. order) :-0.2568936E-01  (-0.2566948E-01)
 number of electron      32.0000000 magnetization 
 augmentation part        0.0226995 magnetization 

 Free energy of the ion-electron system (eV)
  ---------------------------------------------------
  alpha Z        PSCENC =        20.96897804
  Ewald energy   TEWEN  =      -598.68038505
  -Hartree energ DENC   =      -427.01813708
  -exchange      EXHF   =         0.00000000
  -V(xc)+E(xc)   XCENC  =       118.12585400
  PAW double counting   =       819.22654376     -822.88675839
  entropy T*S    EENTRO =        -0.00000000
  eigenvalues    EBANDS =      -420.11723829
  atomic energy  EATOM  =      1208.01512009
  ---------------------------------------------------
  free energy    TOTEN  =      -102.36602291 eV

  energy without entropy =     -102.36602291  energy(sigma->0) =     -102.36602291


--------------------------------------------------------------------------------------------------------




--------------------------------------- Iteration      1(   6)  ---------------------------------------


    POTLOK:  cpu time      0.3568: real time      0.3572
    SETDIJ:  cpu time      0.3133: real time      0.3133
    TRIAL :  cpu time      1.0972: real time      1.0982
    CORREC:  cpu time      1.1644: real time      1.1659
    CHARGE:  cpu time      0.0964: real time      0.0964
    --------------------------------------------
      LOOP:  cpu time      3.0409: real time      3.0604

 eigenvalue-minimisations  :     0
 total energy-change (2. order) : 0.3043229E+02  (-0.1007331E+02)
 number of electron      32.0000000 magnetization 
 augmentation part       -0.0198325 magnetization 

 Free energy of the ion-electron system (eV)
  ---------------------------------------------------
  alpha Z        PSCENC =        20.96897804
  Ewald energy   TEWEN  =      -598.68038505
  -Hartree energ DENC   =      -663.09922917
  -exchange      EXHF   =         0.00000000
  -V(xc)+E(xc)   XCENC  =       140.83425814
  PAW double counting   =      5724.32926473    -5730.30159632
  entropy T*S    EENTRO =        -0.00000000
  eigenvalues    EBANDS =      -174.00013911
  atomic energy  EATOM  =      1208.01512009
  ---------------------------------------------------
  free energy    TOTEN  =       -71.93372865 eV

  energy without entropy =      -71.93372865  energy(sigma->0) =      -71.93372865


--------------------------------------------------------------------------------------------------------




--------------------------------------- Iteration      1(   7)  ---------------------------------------


    POTLOK:  cpu time      0.3576: real time      0.3579
    SETDIJ:  cpu time      0.3138: real time      0.3138
    TRIAL :  cpu time      1.0724: real time      1.0727
    CORREC:  cpu time      1.1528: real time      1.1532
    CHARGE:  cpu time      0.0963: real time      0.0963
    --------------------------------------------
      LOOP:  cpu time      3.0227: real time      3.0239

 eigenvalue-minimisations  :     0
 total energy-change (2. order) :-0.1007614E+02  (-0.1182331E+01)
 number of electron      32.0000000 magnetization 
 augmentation part       -0.0463888 magnetization 

 Free energy of the ion-electron system (eV)
  ---------------------------------------------------
  alpha Z        PSCENC =        20.96897804
  Ewald energy   TEWEN  =      -598.68038505
  -Hartree energ DENC   =      -552.38693015
  -exchange      EXHF   =         0.00000000
  -V(xc)+E(xc)   XCENC  =       131.52281936
  PAW double counting   =     11713.73271357   -11718.06291446
  entropy T*S    EENTRO =        -0.00000000
  eigenvalues    EBANDS =      -287.11927162
  atomic energy  EATOM  =      1208.01512009
  ---------------------------------------------------
  free energy    TOTEN  =       -82.00987023 eV

  energy without entropy =      -82.00987023  energy(sigma->0) =      -82.00987023


--------------------------------------------------------------------------------------------------------




--------------------------------------- Iteration      1(   8)  ---------------------------------------


    POTLOK:  cpu time      0.3568: real time      0.3571
    SETDIJ:  cpu time      0.3151: real time      0.3151
    TRIAL :  cpu time      1.0740: real time      1.0744
    CORREC:  cpu time      1.1529: real time      1.1532
    CHARGE:  cpu time      0.0963: real time      0.0963
    --------------------------------------------
      LOOP:  cpu time      3.0091: real time      3.0264

 eigenvalue-minimisations  :     0
 total energy-change (2. order) :-0.1186593E+01  (-0.4290787E+00)
 number of electron      32.0000000 magnetization 
 augmentation part       -0.0405602 magnetization 

 Free energy of the ion-electron system (eV)
  ---------------------------------------------------
  alpha Z        PSCENC =        20.96897804
  Ewald energy   TEWEN  =      -598.68038505
  -Hartree energ DENC   =      -542.31444586
  -exchange      EXHF   =         0.00000000
  -V(xc)+E(xc)   XCENC  =       130.81846706
  PAW double counting   =     13111.31237416   -13115.42991085
  entropy T*S    EENTRO =        -0.00000000
  eigenvalues    EBANDS =      -297.88666061
  atomic energy  EATOM  =      1208.01512009
  ---------------------------------------------------
  free energy    TOTEN  =       -83.19646303 eV

  energy without entropy =      -83.19646303  energy(sigma->0) =      -83.19646303


--------------------------------------------------------------------------------------------------------




--------------------------------------- Iteration      1(   9)  ---------------------------------------


    POTLOK:  cpu time      0.3567: real time      0.3570
    SETDIJ:  cpu time      0.3175: real time      0.3176
    TRIAL :  cpu time      1.1350: real time      1.1355
    CORREC:  cpu time      1.1538: real time      1.1543
    CHARGE:  cpu time      0.0964: real time      0.0964
    --------------------------------------------
      LOOP:  cpu time      3.0720: real time      3.0901

 eigenvalue-minimisations  :     0
 total energy-change (2. order) :-0.4257744E+00  (-0.1039703E+00)
 number of electron      32.0000000 magnetization 
 augmentation part       -0.0375966 magnetization 

 Free energy of the ion-electron system (eV)
  ---------------------------------------------------
  alpha Z        PSCENC =        20.96897804
  Ewald energy   TEWEN  =      -598.68038505
  -Hartree energ DENC   =      -536.93111226
  -exchange      EXHF   =         0.00000000
  -V(xc)+E(xc)   XCENC  =       130.38225366
  PAW double counting   =     12860.37387690   -12864.46946772
  entropy T*S    EENTRO =        -0.00000000
  eigenvalues    EBANDS =      -303.28150112
  atomic energy  EATOM  =      1208.01512009
  ---------------------------------------------------
  free energy    TOTEN  =       -83.62223747 eV

  energy without entropy =      -83.62223747  energy(sigma->0) =      -83.62223747


--------------------------------------------------------------------------------------------------------




--------------------------------------- Iteration      1(  10)  ---------------------------------------


    POTLOK:  cpu time      0.3574: real time      0.3577
    SETDIJ:  cpu time      0.3120: real time      0.3121
    TRIAL :  cpu time      1.0717: real time      1.0721
    CORREC:  cpu time      1.1525: real time      1.1530
    CHARGE:  cpu time      0.0967: real time      0.0967
    --------------------------------------------
      LOOP:  cpu time      3.0213: real time      3.0227

 eigenvalue-minimisations  :     0
 total energy-change (2. order) :-0.1037294E+00  (-0.1874888E-01)
 number of electron      32.0000000 magnetization 
 augmentation part       -0.0380972 magnetization 

 Free energy of the ion-electron system (eV)
  ---------------------------------------------------
  alpha Z        PSCENC =        20.96897804
  Ewald energy   TEWEN  =      -598.68038505
  -Hartree energ DENC   =      -535.00125163
  -exchange      EXHF   =         0.00000000
  -V(xc)+E(xc)   XCENC  =       130.17238784
  PAW double counting   =     12101.21670660   -12105.35225285
  entropy T*S    EENTRO =        -0.00000000
  eigenvalues    EBANDS =      -305.06526990
  atomic energy  EATOM  =      1208.01512009
  ---------------------------------------------------
  free energy    TOTEN  =       -83.72596686 eV

  energy without entropy =      -83.72596686  energy(sigma->0) =      -83.72596686


--------------------------------------------------------------------------------------------------------




--------------------------------------- Iteration      1(  11)  ---------------------------------------


    POTLOK:  cpu time      0.3569: real time      0.3571
    SETDIJ:  cpu time      0.3126: real time      0.3126
    TRIAL :  cpu time      1.0768: real time      1.0772
    CORREC:  cpu time      1.1789: real time      1.1793
    CHARGE:  cpu time      0.0982: real time      0.0982
    --------------------------------------------
      LOOP:  cpu time      3.0352: real time      3.0553

 eigenvalue-minimisations  :     0
 total energy-change (2. order) :-0.1866697E-01  (-0.3164691E-02)
 number of electron      32.0000000 magnetization 
 augmentation part       -0.0383221 magnetization 

 Free energy of the ion-electron system (eV)
  ---------------------------------------------------
  alpha Z        PSCENC =        20.96897804
  Ewald energy   TEWEN  =      -598.68038505
  -Hartree energ DENC   =      -535.08794338
  -exchange      EXHF   =         0.00000000
  -V(xc)+E(xc)   XCENC  =       130.15313114
  PAW double counting   =     11798.24167636   -11802.39838819
  entropy T*S    EENTRO =        -0.00000000
  eigenvalues    EBANDS =      -304.95682284
  atomic energy  EATOM  =      1208.01512009
  ---------------------------------------------------
  free energy    TOTEN  =       -83.74463383 eV

  energy without entropy =      -83.74463383  energy(sigma->0) =      -83.74463383


--------------------------------------------------------------------------------------------------------




--------------------------------------- Iteration      1(  12)  ---------------------------------------


    POTLOK:  cpu time      0.3561: real time      0.3561
    SETDIJ:  cpu time      0.3133: real time      0.3133
    TRIAL :  cpu time      1.0738: real time      1.0742
    CORREC:  cpu time      1.1524: real time      1.1529
    CHARGE:  cpu time      0.0964: real time      0.0964
    --------------------------------------------
      LOOP:  cpu time      3.0046: real time      3.0246

 eigenvalue-minimisations  :     0
 total energy-change (2. order) :-0.3143260E-02  (-0.6069498E-03)
 number of electron      32.0000000 magnetization 
 augmentation part       -0.0385451 magnetization 

 Free energy of the ion-electron system (eV)
  ---------------------------------------------------
  alpha Z        PSCENC =        20.96897804
  Ewald energy   TEWEN  =      -598.68038505
  -Hartree energ DENC   =      -534.85492384
  -exchange      EXHF   =         0.00000000
  -V(xc)+E(xc)   XCENC  =       130.12025254
  PAW double counting   =     11780.45606830   -11784.61093224
  entropy T*S    EENTRO =        -0.00000000
  eigenvalues    EBANDS =      -305.16195493
  atomic energy  EATOM  =      1208.01512009
  ---------------------------------------------------
  free energy    TOTEN  =       -83.74777709 eV

  energy without entropy =      -83.74777709  energy(sigma->0) =      -83.74777709


--------------------------------------------------------------------------------------------------------




--------------------------------------- Iteration      1(  13)  ---------------------------------------


    POTLOK:  cpu time      0.3569: real time      0.3571
    SETDIJ:  cpu time      0.3126: real time      0.3127
    TRIAL :  cpu time      1.0727: real time      1.0732
    CORREC:  cpu time      1.1527: real time      1.1532
    CHARGE:  cpu time      0.0964: real time      0.0967
    --------------------------------------------
      LOOP:  cpu time      3.0192: real time      3.0234

 eigenvalue-minimisations  :     0
 total energy-change (2. order) :-0.5960444E-03  (-0.1163760E-03)
 number of electron      32.0000000 magnetization 
 augmentation part       -0.0385876 magnetization 

 Free energy of the ion-electron system (eV)
  ---------------------------------------------------
  alpha Z        PSCENC =        20.96897804
  Ewald energy   TEWEN  =      -598.68038505
  -Hartree energ DENC   =      -535.02600971
  -exchange      EXHF   =         0.00000000
  -V(xc)+E(xc)   XCENC  =       130.13156116
  PAW double counting   =     11765.12000267   -11769.27587485
  entropy T*S    EENTRO =        -0.00000000
  eigenvalues    EBANDS =      -305.00176549
  atomic energy  EATOM  =      1208.01512009
  ---------------------------------------------------
  free energy    TOTEN  =       -83.74837313 eV

  energy without entropy =      -83.74837313  energy(sigma->0) =      -83.74837313


--------------------------------------------------------------------------------------------------------




--------------------------------------- Iteration      1(  14)  ---------------------------------------


    POTLOK:  cpu time      0.3575: real time      0.3575
    SETDIJ:  cpu time      0.3126: real time      0.3126
    TRIAL :  cpu time      1.0726: real time      1.0731
    CORREC:  cpu time      1.1531: real time      1.1536
    CHARGE:  cpu time      0.1031: real time      0.1034
    --------------------------------------------
      LOOP:  cpu time      3.0112: real time      3.0308

 eigenvalue-minimisations  :     0
 total energy-change (2. order) :-0.1143960E-03  (-0.2511178E-04)
 number of electron      32.0000000 magnetization 
 augmentation part       -0.0385319 magnetization 

 Free energy of the ion-electron system (eV)
  ---------------------------------------------------
  alpha Z        PSCENC =        20.96897804
  Ewald energy   TEWEN  =      -598.68038505
  -Hartree energ DENC   =      -534.99471614
  -exchange      EXHF   =         0.00000000
  -V(xc)+E(xc)   XCENC  =       130.12860773
  PAW double counting   =     11751.47360854   -11755.62878224
  entropy T*S    EENTRO =        -0.00000000
  eigenvalues    EBANDS =      -305.03091850
  atomic energy  EATOM  =      1208.01512009
  ---------------------------------------------------
  free energy    TOTEN  =       -83.74848753 eV

  energy without entropy =      -83.74848753  energy(sigma->0) =      -83.74848753


--------------------------------------------------------------------------------------------------------




--------------------------------------- Iteration      1(  15)  ---------------------------------------


    POTLOK:  cpu time      0.3570: real time      0.3570
    SETDIJ:  cpu time      0.3732: real time      0.3732
    TRIAL :  cpu time      1.0748: real time      1.0753
    CORREC:  cpu time      1.1542: real time      1.1551
    CHARGE:  cpu time      0.0964: real time      0.0964
    --------------------------------------------
      LOOP:  cpu time      3.0865: real time      3.0881

 eigenvalue-minimisations  :     0
 total energy-change (2. order) :-0.2435143E-04  (-0.2730040E-05)
 number of electron      32.0000000 magnetization 
 augmentation part       -0.0385388 magnetization 

 Free energy of the ion-electron system (eV)
  ---------------------------------------------------
  alpha Z        PSCENC =        20.96897804
  Ewald energy   TEWEN  =      -598.68038505
  -Hartree energ DENC   =      -535.04716164
  -exchange      EXHF   =         0.00000000
  -V(xc)+E(xc)   XCENC  =       130.13384874
  PAW double counting   =     11743.95230984   -11748.10806460
  entropy T*S    EENTRO =        -0.00000000
  eigenvalues    EBANDS =      -304.98315731
  atomic energy  EATOM  =      1208.01512009
  ---------------------------------------------------
  free energy    TOTEN  =       -83.74851188 eV

  energy without entropy =      -83.74851188  energy(sigma->0) =      -83.74851188


--------------------------------------------------------------------------------------------------------




--------------------------------------- Iteration      1(  16)  ---------------------------------------


    POTLOK:  cpu time      0.3576: real time      0.3576
    SETDIJ:  cpu time      0.3490: real time      0.3490
    TRIAL :  cpu time      1.0753: real time      1.0757
    CORREC:  cpu time      1.1546: real time      1.1555
    CHARGE:  cpu time      0.0964: real time      0.0964
    --------------------------------------------
      LOOP:  cpu time      3.0452: real time      3.0645

 eigenvalue-minimisations  :     0
 total energy-change (2. order) :-0.2645802E-05  (-0.6224901E-06)
 number of electron      32.0000000 magnetization 
 augmentation part       -0.0385435 magnetization 

 Free energy of the ion-electron system (eV)
  ---------------------------------------------------
  alpha Z        PSCENC =        20.96897804
  Ewald energy   TEWEN  =      -598.68038505
  -Hartree energ DENC   =      -535.03981935
  -exchange      EXHF   =         0.00000000
  -V(xc)+E(xc)   XCENC  =       130.13335142
  PAW double counting   =     11745.84545813   -11750.00105025
  entropy T*S    EENTRO =        -0.00000000
  eigenvalues    EBANDS =      -304.99016755
  atomic energy  EATOM  =      1208.01512009
  ---------------------------------------------------
  free energy    TOTEN  =       -83.74851453 eV

  energy without entropy =      -83.74851453  energy(sigma->0) =      -83.74851453


--------------------------------------------------------------------------------------------------------




--------------------------------------- Iteration      1(  17)  ---------------------------------------


    POTLOK:  cpu time      0.3567: real time      0.3567
    SETDIJ:  cpu time      0.3132: real time      0.3132
    TRIAL :  cpu time      1.1879: real time      1.1889
    CORREC:  cpu time      1.1529: real time      1.1535
    CHARGE:  cpu time      0.0964: real time      0.0964
    --------------------------------------------
      LOOP:  cpu time      3.1206: real time      3.1376

 eigenvalue-minimisations  :     0
 total energy-change (2. order) :-0.3508958E-06  (-0.1641603E-06)
 number of electron      32.0000000 magnetization 
 augmentation part       -0.0385448 magnetization 

 Free energy of the ion-electron system (eV)
  ---------------------------------------------------
  alpha Z        PSCENC =        20.96897804
  Ewald energy   TEWEN  =      -598.68038505
  -Hartree energ DENC   =      -535.03765085
  -exchange      EXHF   =         0.00000000
  -V(xc)+E(xc)   XCENC  =       130.13321997
  PAW double counting   =     11747.30287547   -11751.45840160
  entropy T*S    EENTRO =        -0.00000000
  eigenvalues    EBANDS =      -304.99227095
  atomic energy  EATOM  =      1208.01512009
  ---------------------------------------------------
  free energy    TOTEN  =       -83.74851488 eV

  energy without entropy =      -83.74851488  energy(sigma->0) =      -83.74851488


--------------------------------------------------------------------------------------------------------




--------------------------------------- Iteration      1(  18)  ---------------------------------------


    POTLOK:  cpu time      0.3577: real time      0.3577
    SETDIJ:  cpu time      0.3123: real time      0.3127
    TRIAL :  cpu time      1.0735: real time      1.0740
    CORREC:  cpu time      1.1545: real time      1.1548
    EDDIAG:  cpu time      0.3850: real time      0.3854
    CHARGE:  cpu time      0.0961: real time      0.0961
    --------------------------------------------
      LOOP:  cpu time      3.4088: real time      3.4105

 eigenvalue-minimisations  :     0
 total energy-change (2. order) :-0.4461435E-07  (-0.8051265E-07)
 number of electron      32.0000000 magnetization 
 augmentation part       -0.0385455 magnetization 

 Free energy of the ion-electron system (eV)
  ---------------------------------------------------
  alpha Z        PSCENC =        20.96897804
  Ewald energy   TEWEN  =      -598.68038505
  -Hartree energ DENC   =      -535.03851971
  -exchange      EXHF   =         0.00000000
  -V(xc)+E(xc)   XCENC  =       130.13332609
  PAW double counting   =     11748.05743898   -11752.21295793
  entropy T*S    EENTRO =        -0.00000000
  eigenvalues    EBANDS =      -304.99151543
  atomic energy  EATOM  =      1208.01512009
  ---------------------------------------------------
  free energy    TOTEN  =       -83.74851492 eV

  energy without entropy =      -83.74851492  energy(sigma->0) =      -83.74851492


--------------------------------------------------------------------------------------------------------


  average scaling for gradient   1.2654


 average (electrostatic) potential at core
  the test charge radii are     0.5902  0.4325
  (the norm of the test charge is              1.0000)
       1-102.2703       2-102.2703       3-102.2703       4-102.2703       5 -44.6558
       6 -44.6541       7 -44.6559       8 -44.6558       9 -44.6541      10 -44.6559
      11 -44.6553      12 -44.6533      13 -44.6533      14 -44.6549      15 -44.6553
      16 -44.6549



 E-fermi :  -2.6733     XC(G=0):  -7.7469     alpha+bet : -5.1342

 Fermi energy:        -2.6733126544

 k-point     1 :       0.0000    0.0000    0.0000
  band No.  band energies     occupation 
      1     -19.1444      2.00000
      2     -18.4974      2.00000
      3     -18.4973      2.00000
      4     -18.4973      2.00000
      5      -8.6910      2.00000
      6      -8.6908      2.00000
      7      -8.6905      2.00000
      8      -7.8595      2.00000
      9      -7.8587      2.00000
     10      -7.6124      2.00000
     11      -7.6122      2.00000
     12      -7.6119      2.00000
     13      -3.3116      2.00000
     14      -3.3114      2.00000
     15      -3.3113      2.00000
     16      -2.8066      2.00000
     17       1.8310      0.00000
     18       5.0850      0.00000
     19       5.0851      0.00000
     20       5.0851      0.00000
     21       6.7947      0.00000
     22       6.7949      0.00000
     23       6.7950      0.00000
     24       8.7829      0.00000
     25       8.7840      0.00000
     26       8.8607      0.00000
     27       9.8327      0.00000
     28       9.8407      0.00000

 k-point     2 :       0.2000    0.0000    0.0000
  band No.  band energies     occupation 
      1     -19.0909      2.00000
      2     -18.5944      2.00000
      3     -18.4912      2.00000
      4     -18.4647      2.00000
      5      -8.6766      2.00000
      6      -8.6664      2.00000
      7      -8.5788      2.00000
      8      -7.9400      2.00000
      9      -7.8190      2.00000
     10      -7.7765      2.00000
     11      -7.6609      2.00000
     12      -7.5341      2.00000
     13      -3.4574      2.00000
     14      -3.4149      2.00000
     15      -3.1823      2.00000
     16      -2.8566      2.00000
     17       2.2463      0.00000
     18       4.8811      0.00000
     19       5.4223      0.00000
     20       5.4768      0.00000
     21       6.6572      0.00000
     22       6.9369      0.00000
     23       7.1663      0.00000
     24       8.4293      0.00000
     25       8.5186      0.00000
     26       9.3136      0.00000
     27       9.3592      0.00000
     28       9.8393      0.00000

 k-point     3 :       0.0000    0.2000    0.0000
  band No.  band energies     occupation 
      1     -19.0909      2.00000
      2     -18.5944      2.00000
      3     -18.4912      2.00000
      4     -18.4647      2.00000
      5      -8.6764      2.00000
      6      -8.6669      2.00000
      7      -8.5785      2.00000
      8      -7.9398      2.00000
      9      -7.8192      2.00000
     10      -7.7767      2.00000
     11      -7.6603      2.00000
     12      -7.5343      2.00000
     13      -3.4575      2.00000
     14      -3.4147      2.00000
     15      -3.1824      2.00000
     16      -2.8566      2.00000
     17       2.2463      0.00000
     18       4.8811      0.00000
     19       5.4222      0.00000
     20       5.4767      0.00000
     21       6.6573      0.00000
     22       6.9367      0.00000
     23       7.1665      0.00000
     24       8.4293      0.00000
     25       8.5186      0.00000
     26       9.2805      0.00000
     27       9.3591      0.00000
     28       9.8254      0.00000

 k-point     4 :       0.0000    0.0000    0.2000
  band No.  band energies     occupation 
      1     -19.0909      2.00000
      2     -18.5944      2.00000
      3     -18.4912      2.00000
      4     -18.4647      2.00000
      5      -8.6765      2.00000
      6      -8.6667      2.00000
      7      -8.5786      2.00000
      8      -7.9403      2.00000
      9      -7.8186      2.00000
     10      -7.7768      2.00000
     11      -7.6607      2.00000
     12      -7.5340      2.00000
     13      -3.4575      2.00000
     14      -3.4147      2.00000
     15      -3.1824      2.00000
     16      -2.8566      2.00000
     17       2.2464      0.00000
     18       4.8812      0.00000
     19       5.4222      0.00000
     20       5.4768      0.00000
     21       6.6573      0.00000
     22       6.9366      0.00000
     23       7.1664      0.00000
     24       8.4291      0.00000
     25       8.5212      0.00000
     26       9.2721      0.00000
     27       9.3658      0.00000
     28       9.8408      0.00000

 k-point     5 :       0.4000    0.0000    0.0000
  band No.  band energies     occupation 
      1     -18.9473      2.00000
      2     -18.7604      2.00000
      3     -18.4770      2.00000
      4     -18.4643      2.00000
      5      -8.6149      2.00000
      6      -8.6117      2.00000
      7      -8.3607      2.00000
      8      -8.1292      2.00000
      9      -7.8882      2.00000
     10      -7.8160      2.00000
     11      -7.6935      2.00000
     12      -7.5804      2.00000
     13      -3.5654      2.00000
     14      -3.5564      2.00000
     15      -3.0780      2.00000
     16      -2.9689      2.00000
     17       3.2473      0.00000
     18       4.3188      0.00000
     19       6.0255      0.00000
     20       6.1153      0.00000
     21       6.9007      0.00000
     22       7.0911      0.00000
     23       7.8920      0.00000
     24       8.0543      0.00000
     25       8.0639      0.00000
     26       8.6294      0.00000
     27       9.3030      0.00000
     28       9.6302      0.00000

 k-point     6 :       0.0000    0.4000    0.0000
  band No.  band energies     occupation 
      1     -18.9473      2.00000
      2     -18.7604      2.00000
      3     -18.4770      2.00000
      4     -18.4643      2.00000
      5      -8.6153      2.00000
      6      -8.6117      2.00000
      7      -8.3604      2.00000
      8      -8.1291      2.00000
      9      -7.8882      2.00000
     10      -7.8158      2.00000
     11      -7.6935      2.00000
     12      -7.5806      2.00000
     13      -3.5654      2.00000
     14      -3.5564      2.00000
     15      -3.0781      2.00000
     16      -2.9689      2.00000
     17       3.2473      0.00000
     18       4.3187      0.00000
     19       6.0254      0.00000
     20       6.1152      0.00000
     21       6.9008      0.00000
     22       7.0910      0.00000
     23       7.8924      0.00000
     24       8.0587      0.00000
     25       8.0608      0.00000
     26       8.6302      0.00000
     27       9.3530      0.00000
     28       9.5274      0.00000

 k-point     7 :       0.0000    0.0000    0.4000
  band No.  band energies     occupation 
      1     -18.9473      2.00000
      2     -18.7604      2.00000
      3     -18.4770      2.00000
      4     -18.4643      2.00000
      5      -8.6150      2.00000
      6      -8.6116      2.00000
      7      -8.3605      2.00000
      8      -8.1293      2.00000
      9      -7.8886      2.00000
     10      -7.8161      2.00000
     11      -7.6932      2.00000
     12      -7.5802      2.00000
     13      -3.5654      2.00000
     14      -3.5564      2.00000
     15      -3.0780      2.00000
     16      -2.9689      2.00000
     17       3.2474      0.00000
     18       4.3190      0.00000
     19       6.0255      0.00000
     20       6.1155      0.00000
     21       6.9008      0.00000
     22       7.0908      0.00000
     23       7.8921      0.00000
     24       8.0561      0.00000
     25       8.0608      0.00000
     26       8.6291      0.00000
     27       9.3801      0.00000
     28       9.4949      0.00000

 k-point     8 :       0.2000    0.2000    0.0000
  band No.  band energies     occupation 
      1     -19.0416      2.00000
      2     -18.6187      2.00000
      3     -18.5198      2.00000
      4     -18.4641      2.00000
      5      -8.6746      2.00000
      6      -8.6333      2.00000
      7      -8.5223      2.00000
      8      -7.9726      2.00000
      9      -7.8884      2.00000
     10      -7.7798      2.00000
     11      -7.7165      2.00000
     12      -7.4938      2.00000
     13      -3.5012      2.00000
     14      -3.4844      2.00000
     15      -3.1333      2.00000
     16      -2.8954      2.00000
     17       2.6046      0.00000
     18       4.9857      0.00000
     19       5.4418      0.00000
     20       5.8155      0.00000
     21       6.7002      0.00000
     22       6.9719      0.00000
     23       7.2555      0.00000
     24       8.0649      0.00000
     25       8.2994      0.00000
     26       9.2240      0.00000
     27       9.2906      0.00000
     28       9.8072      0.00000

 k-point     9 :       0.0000    0.2000    0.2000
[...]
     18       4.9748      0.00000
     19       5.1920      0.00000
     20       5.6225      0.00000
     21       6.9138      0.00000
     22       7.0317      0.00000
     23       7.5471      0.00000
     24       7.6841      0.00000
     25       8.2596      0.00000
     26       8.6732      0.00000
     27       9.0145      0.00000
     28       9.2141      0.00000

 k-point    53 :      -0.2000    0.4000    0.4000
  band No.  band energies     occupation 
      1     -18.7919      2.00000
      2     -18.7180      2.00000
      3     -18.5813      2.00000
      4     -18.5533      2.00000
      5      -8.7079      2.00000
      6      -8.6807      2.00000
      7      -8.5250      2.00000
      8      -8.4314      2.00000
      9      -7.7553      2.00000
     10      -7.6806      2.00000
     11      -7.5547      2.00000
     12      -7.4812      2.00000
     13      -3.5183      2.00000
     14      -3.4945      2.00000
     15      -3.0433      2.00000
     16      -3.0239      2.00000
     17       4.2622      0.00000
     18       4.9748      0.00000
     19       5.1920      0.00000
     20       5.6225      0.00000
     21       6.9139      0.00000
     22       7.0317      0.00000
     23       7.5471      0.00000
     24       7.6841      0.00000
     25       8.2598      0.00000
     26       8.6747      0.00000
     27       9.0167      0.00000
     28       9.2279      0.00000

 k-point    54 :      -0.4000   -0.4000    0.2000
  band No.  band energies     occupation 
      1     -18.7919      2.00000
      2     -18.7180      2.00000
      3     -18.5813      2.00000
      4     -18.5532      2.00000
      5      -8.7078      2.00000
      6      -8.6806      2.00000
      7      -8.5252      2.00000
      8      -8.4315      2.00000
      9      -7.7552      2.00000
     10      -7.6803      2.00000
     11      -7.5548      2.00000
     12      -7.4813      2.00000
     13      -3.5183      2.00000
     14      -3.4945      2.00000
     15      -3.0432      2.00000
     16      -3.0239      2.00000
     17       4.2622      0.00000
     18       4.9747      0.00000
     19       5.1919      0.00000
     20       5.6225      0.00000
     21       6.9138      0.00000
     22       7.0317      0.00000
     23       7.5470      0.00000
     24       7.6840      0.00000
     25       8.2599      0.00000
     26       8.6743      0.00000
     27       9.0145      0.00000
     28       9.2144      0.00000

 k-point    55 :      -0.2000   -0.4000    0.4000
  band No.  band energies     occupation 
      1     -18.7919      2.00000
      2     -18.7180      2.00000
      3     -18.5813      2.00000
      4     -18.5532      2.00000
      5      -8.7079      2.00000
      6      -8.6807      2.00000
      7      -8.5250      2.00000
      8      -8.4313      2.00000
      9      -7.7553      2.00000
     10      -7.6806      2.00000
     11      -7.5547      2.00000
     12      -7.4812      2.00000
     13      -3.5183      2.00000
     14      -3.4945      2.00000
     15      -3.0433      2.00000
     16      -3.0239      2.00000
     17       4.2622      0.00000
     18       4.9748      0.00000
     19       5.1919      0.00000
     20       5.6226      0.00000
     21       6.9138      0.00000
     22       7.0318      0.00000
     23       7.5470      0.00000
     24       7.6841      0.00000
     25       8.2597      0.00000
     26       8.6732      0.00000
     27       9.0186      0.00000
     28       9.2138      0.00000

 k-point    56 :      -0.4000   -0.2000    0.4000
  band No.  band energies     occupation 
      1     -18.7919      2.00000
      2     -18.7180      2.00000
      3     -18.5813      2.00000
      4     -18.5532      2.00000
      5      -8.7079      2.00000
      6      -8.6807      2.00000
      7      -8.5251      2.00000
      8      -8.4314      2.00000
      9      -7.7553      2.00000
     10      -7.6805      2.00000
     11      -7.5547      2.00000
     12      -7.4812      2.00000
     13      -3.5184      2.00000
     14      -3.4945      2.00000
     15      -3.0432      2.00000
     16      -3.0239      2.00000
     17       4.2622      0.00000
     18       4.9748      0.00000
     19       5.1920      0.00000
     20       5.6225      0.00000
     21       6.9138      0.00000
     22       7.0317      0.00000
     23       7.5472      0.00000
     24       7.6841      0.00000
     25       8.2598      0.00000
     26       8.6748      0.00000
     27       9.0184      0.00000
     28       9.2154      0.00000

 k-point    57 :       0.4000   -0.4000    0.2000
  band No.  band energies     occupation 
      1     -18.7919      2.00000
      2     -18.7180      2.00000
      3     -18.5813      2.00000
      4     -18.5532      2.00000
      5      -8.7078      2.00000
      6      -8.6806      2.00000
      7      -8.5252      2.00000
      8      -8.4315      2.00000
      9      -7.7552      2.00000
     10      -7.6803      2.00000
     11      -7.5548      2.00000
     12      -7.4813      2.00000
     13      -3.5183      2.00000
     14      -3.4945      2.00000
     15      -3.0432      2.00000
     16      -3.0239      2.00000
     17       4.2622      0.00000
     18       4.9747      0.00000
     19       5.1919      0.00000
     20       5.6225      0.00000
     21       6.9138      0.00000
     22       7.0317      0.00000
     23       7.5470      0.00000
     24       7.6841      0.00000
     25       8.2599      0.00000
     26       8.6737      0.00000
     27       9.0151      0.00000
     28       9.2150      0.00000

 k-point    58 :       0.4000   -0.2000    0.4000
  band No.  band energies     occupation 
      1     -18.7919      2.00000
      2     -18.7180      2.00000
      3     -18.5813      2.00000
      4     -18.5532      2.00000
      5      -8.7079      2.00000
      6      -8.6807      2.00000
      7      -8.5251      2.00000
      8      -8.4314      2.00000
      9      -7.7553      2.00000
     10      -7.6804      2.00000
     11      -7.5547      2.00000
     12      -7.4812      2.00000
     13      -3.5184      2.00000
     14      -3.4945      2.00000
     15      -3.0432      2.00000
     16      -3.0239      2.00000
     17       4.2622      0.00000
     18       4.9748      0.00000
     19       5.1920      0.00000
     20       5.6225      0.00000
     21       6.9138      0.00000
     22       7.0317      0.00000
     23       7.5472      0.00000
     24       7.6841      0.00000
     25       8.2598      0.00000
     26       8.6731      0.00000
     27       9.0143      0.00000
     28       9.2137      0.00000

 k-point    59 :       0.2000   -0.4000    0.4000
  band No.  band energies     occupation 
      1     -18.7919      2.00000
      2     -18.7180      2.00000
      3     -18.5813      2.00000
      4     -18.5532      2.00000
      5      -8.7079      2.00000
      6      -8.6807      2.00000
      7      -8.5250      2.00000
      8      -8.4313      2.00000
      9      -7.7553      2.00000
     10      -7.6806      2.00000
     11      -7.5547      2.00000
     12      -7.4812      2.00000
     13      -3.5183      2.00000
     14      -3.4945      2.00000
     15      -3.0433      2.00000
     16      -3.0239      2.00000
     17       4.2622      0.00000
     18       4.9748      0.00000
     19       5.1919      0.00000
     20       5.6226      0.00000
     21       6.9138      0.00000
     22       7.0318      0.00000
     23       7.5470      0.00000
     24       7.6840      0.00000
     25       8.2597      0.00000
     26       8.6734      0.00000
     27       9.0162      0.00000
     28       9.2149      0.00000

 k-point    60 :       0.4000    0.4000    0.4000
  band No.  band energies     occupation 
      1     -18.7310      2.00000
      2     -18.6886      2.00000
      3     -18.6192      2.00000
      4     -18.5966      2.00000
      5      -8.7661      2.00000
      6      -8.7634      2.00000
      7      -8.6767      2.00000
      8      -8.6307      2.00000
      9      -7.5848      2.00000
     10      -7.5120      2.00000
     11      -7.4992      2.00000
     12      -7.4273      2.00000
     13      -3.3842      2.00000
     14      -3.3668      2.00000
     15      -3.0846      2.00000
     16      -3.0829      2.00000
     17       4.4833      0.00000
     18       4.8960      0.00000
     19       4.9854      0.00000
     20       5.0215      0.00000
     21       7.0637      0.00000
     22       7.0996      0.00000
     23       7.4464      0.00000
     24       7.5181      0.00000
     25       8.6152      0.00000
     26       8.8538      0.00000
     27       9.0587      0.00000
     28       9.2610      0.00000

 k-point    61 :      -0.4000    0.4000    0.4000
  band No.  band energies     occupation 
      1     -18.7310      2.00000
      2     -18.6886      2.00000
      3     -18.6192      2.00000
      4     -18.5966      2.00000
      5      -8.7661      2.00000
      6      -8.7634      2.00000
      7      -8.6767      2.00000
      8      -8.6307      2.00000
      9      -7.5848      2.00000
     10      -7.5120      2.00000
     11      -7.4992      2.00000
     12      -7.4273      2.00000
     13      -3.3842      2.00000
     14      -3.3668      2.00000
     15      -3.0846      2.00000
     16      -3.0829      2.00000
     17       4.4833      0.00000
     18       4.8960      0.00000
     19       4.9854      0.00000
     20       5.0215      0.00000
     21       7.0637      0.00000
     22       7.0995      0.00000
     23       7.4464      0.00000
     24       7.5181      0.00000
     25       8.6152      0.00000
     26       8.8538      0.00000
     27       9.0586      0.00000
     28       9.2611      0.00000

 k-point    62 :      -0.4000   -0.4000    0.4000
  band No.  band energies     occupation 
      1     -18.7310      2.00000
      2     -18.6885      2.00000
      3     -18.6192      2.00000
      4     -18.5966      2.00000
      5      -8.7661      2.00000
      6      -8.7634      2.00000
      7      -8.6767      2.00000
      8      -8.6307      2.00000
      9      -7.5848      2.00000
     10      -7.5120      2.00000
     11      -7.4992      2.00000
     12      -7.4273      2.00000
     13      -3.3842      2.00000
     14      -3.3668      2.00000
     15      -3.0846      2.00000
     16      -3.0829      2.00000
     17       4.4833      0.00000
     18       4.8960      0.00000
     19       4.9853      0.00000
     20       5.0215      0.00000
     21       7.0636      0.00000
     22       7.0996      0.00000
     23       7.4463      0.00000
     24       7.5181      0.00000
     25       8.6153      0.00000
     26       8.8539      0.00000
     27       9.0585      0.00000
     28       9.2611      0.00000

 k-point    63 :       0.4000   -0.4000    0.4000
  band No.  band energies     occupation 
      1     -18.7310      2.00000
      2     -18.6885      2.00000
      3     -18.6192      2.00000
      4     -18.5966      2.00000
      5      -8.7661      2.00000
      6      -8.7634      2.00000
      7      -8.6767      2.00000
      8      -8.6307      2.00000
      9      -7.5848      2.00000
     10      -7.5120      2.00000
     11      -7.4992      2.00000
     12      -7.4273      2.00000
     13      -3.3842      2.00000
     14      -3.3668      2.00000
     15      -3.0846      2.00000
     16      -3.0829      2.00000
     17       4.4833      0.00000
     18       4.8960      0.00000
     19       4.9853      0.00000
     20       5.0215      0.00000
     21       7.0636      0.00000
     22       7.0996      0.00000
     23       7.4463      0.00000
     24       7.5181      0.00000
     25       8.6153      0.00000
     26       8.8539      0.00000
     27       9.0585      0.00000
     28       9.2613      0.00000


--------------------------------------------------------------------------------------------------------


 soft charge-density along one line, spin component           1
         0         1         2         3         4         5         6         7         8         9
 total charge-density along one line

 pseudopotential strength for first ion, spin component:           1
 19.902  27.868   0.028   0.028   0.028   0.042   0.042   0.042
 27.868  39.026   0.039   0.039   0.039   0.058   0.058   0.058
  0.028   0.039  -5.878   0.001   0.001  -8.818   0.001   0.001
  0.028   0.039   0.001  -5.878   0.001   0.001  -8.817   0.001
  0.028   0.039   0.001   0.001  -5.878   0.001   0.001  -8.818
  0.042   0.058  -8.818   0.001   0.001 -13.207   0.002   0.002
  0.042   0.058   0.001  -8.817   0.001   0.002 -13.206   0.002
  0.042   0.058   0.001   0.001  -8.818   0.002   0.002 -13.207
 total augmentation occupancy for first ion, spin component:           1
 12.643  -6.040   2.215   2.214   2.214  -1.068  -1.067  -1.067
 -6.040   3.006  -1.441  -1.440  -1.440   0.623   0.623   0.623
  2.215  -1.441   7.606  -0.963  -0.963  -3.037   0.558   0.558
  2.214  -1.440  -0.963   7.607  -0.963   0.558  -3.037   0.558
  2.214  -1.440  -0.963  -0.963   7.607   0.558   0.558  -3.037
 -1.068   0.623  -3.037   0.558   0.558   1.234  -0.276  -0.276
 -1.067   0.623   0.558  -3.037   0.558  -0.276   1.235  -0.276
 -1.067   0.623   0.558   0.558  -3.037  -0.276  -0.276   1.235


------------------------ aborting loop because EDIFF is reached ----------------------------------------


    FORLOC:  cpu time      0.0048: real time      0.0048
    FORNL :  cpu time      0.0933: real time      0.0936
    FORCOR:  cpu time      0.6698: real time      0.6701
    OFIELD:  cpu time      0.0017: real time      0.0017

 VOLUME and BASIS-vectors are now :
 -----------------------------------------------------------------------------
  energy-cutoff  :     1000.00
  volume of cell :      135.05
      direct lattice vectors                 reciprocal lattice vectors
     5.130500000  0.000000000  0.000000000     0.194912777  0.000000000  0.000000000
     0.000000000  5.130500000  0.000000000     0.000000000  0.194912777  0.000000000
     0.000000000  0.000000000  5.130500000     0.000000000  0.000000000  0.194912777

  length of vectors
     5.130500000  5.130500000  5.130500000     0.194912777  0.194912777  0.194912777


 FORCES acting on ions:
    Electron-Ion                     Ewald-Force                    Non-Local-Force
 -----------------------------------------------------------------------------------------------
   0.138E+02 0.138E+02 0.138E+02   -.291E+02 -.292E+02 -.291E+02   0.155E+02 0.155E+02 0.155E+02
   0.138E+02 -.138E+02 -.138E+02   -.291E+02 0.292E+02 0.291E+02   0.155E+02 -.155E+02 -.155E+02
   -.138E+02 0.138E+02 -.138E+02   0.291E+02 -.292E+02 0.291E+02   -.155E+02 0.155E+02 -.155E+02
   -.138E+02 -.138E+02 0.138E+02   0.291E+02 0.292E+02 -.291E+02   -.155E+02 -.155E+02 0.155E+02
   -.437E+02 -.202E+02 0.261E+02   0.491E+02 0.225E+02 -.297E+02   -.568E+01 -.238E+01 0.373E+01
   -.202E+02 0.261E+02 -.437E+02   0.225E+02 -.297E+02 0.491E+02   -.238E+01 0.373E+01 -.568E+01
   0.261E+02 -.437E+02 -.202E+02   -.297E+02 0.491E+02 0.225E+02   0.373E+01 -.568E+01 -.238E+01
   -.437E+02 0.202E+02 -.261E+02   0.491E+02 -.225E+02 0.297E+02   -.568E+01 0.238E+01 -.373E+01
   -.202E+02 -.261E+02 0.437E+02   0.225E+02 0.297E+02 -.491E+02   -.238E+01 -.373E+01 0.568E+01
   0.261E+02 0.437E+02 0.202E+02   -.297E+02 -.491E+02 -.225E+02   0.373E+01 0.568E+01 0.238E+01
   0.202E+02 0.261E+02 0.437E+02   -.225E+02 -.297E+02 -.491E+02   0.238E+01 0.373E+01 0.568E+01
   -.261E+02 -.437E+02 0.202E+02   0.297E+02 0.491E+02 -.225E+02   -.373E+01 -.568E+01 0.238E+01
   -.261E+02 0.437E+02 -.202E+02   0.297E+02 -.491E+02 0.225E+02   -.373E+01 0.568E+01 -.238E+01
   0.437E+02 0.202E+02 0.261E+02   -.491E+02 -.225E+02 -.297E+02   0.568E+01 0.238E+01 0.373E+01
   0.202E+02 -.261E+02 -.437E+02   -.225E+02 0.297E+02 0.491E+02   0.238E+01 -.373E+01 -.568E+01
   0.437E+02 -.202E+02 -.261E+02   -.491E+02 0.225E+02 0.297E+02   0.568E+01 -.238E+01 -.373E+01
 -----------------------------------------------------------------------------------------------
   0.341E-02 0.101E-03 0.551E-04   0.284E-13 -.355E-14 0.320E-13   -.321E-02 -.136E-03 -.194E-04


 POSITION                                       TOTAL-FORCE (eV/Angst)
 -----------------------------------------------------------------------------------
      1.04471      1.04468      1.04473         0.146624      0.143531      0.146982
      3.60996      1.52057      4.08578         0.146651     -0.143462     -0.147063
      4.08581      3.60993      1.52052        -0.147738      0.143027     -0.146167
      1.52056      4.08583      3.60998        -0.147581     -0.143204      0.146165
      1.86198      1.39632      0.53263        -0.225343     -0.096387      0.154332
      1.39638      0.53260      1.86208        -0.097135      0.155296     -0.226803
      0.53257      1.86191      1.39634         0.153992     -0.224248     -0.096312
      4.42723      1.16894      4.59787        -0.225296      0.096362     -0.154307
      3.96164      2.03265      3.26842        -0.097164     -0.155337      0.226879
      3.09782      0.70334      3.73416         0.153985      0.224233      0.096311
      3.73412      3.09786      0.70317         0.097370      0.155257      0.226792
      4.59793      4.42716      1.16892        -0.153380     -0.223460      0.095934
      2.03269      3.26859      3.96158        -0.153461      0.223602     -0.095996
      0.70327      3.73419      3.09788         0.225550      0.096570      0.154711
      1.16888      4.59790      4.42733         0.097326     -0.155203     -0.226724
      3.26852      3.96157      2.03262         0.225600     -0.096577     -0.154732
 -----------------------------------------------------------------------------------
    total drift:                                0.000193     -0.000036      0.000036


--------------------------------------------------------------------------------------------------------



  FREE ENERGIE OF THE ION-ELECTRON SYSTEM (eV)
  ---------------------------------------------------
  free  energy   TOTEN  =       -83.74851492 eV

  energy  without entropy=      -83.74851492  energy(sigma->0) =      -83.74851492



--------------------------------------------------------------------------------------------------------


    POTLOK:  cpu time      0.6726: real time      0.6730


--------------------------------------------------------------------------------------------------------


 stress matrix after NEB project (eV)
      0.00000      0.00000      0.00000
      0.00000      0.00000      0.00000
      0.00000      0.00000      0.00000
  FORCES: max atom, RMS     0.291623    0.280931
  FORCE total and by dimension    1.123722    0.226879
  Stress total and by dimension    0.000000    0.000000
     LOOP+:  cpu time     51.6161: real time     51.8459
    4ORBIT:  cpu time      0.0000: real time      0.0000

 total amount of memory used by VASP MPI-rank0    41619. kBytes
=======================================================================

   base      :      30000. kBytes
   nonl-proj :       2728. kBytes
   fftplans  :        601. kBytes
   grid      :       1177. kBytes
   one-center:          3. kBytes
   wavefun   :       7110. kBytes

  
  
 General timing and accounting informations for this job:
 ========================================================
  
                  Total CPU time used (sec):       58.479
                            User time (sec):       56.603
                          System time (sec):        1.876
                         Elapsed time (sec):       61.588
  
                   Maximum memory used (kb):      227956.
                   Average memory used (kb):          N/A
  
                          Minor page faults:        53066
                          Major page faults:          508
                 Voluntary context switches:         2944
