 vasp.6.4.1 05Apr23 (build Jun  6 2023 14:36:51) complex                         
 executed on        HPECrayEX_GCC date 2024.08.20  14:47:58
 running  256 mpi-ranks, with    1 threads/rank, on    2 nodes
 distrk:  each k-point on  128 cores,    2 groups
 distr:  one band on NCORE=  32 cores,    4 groups


--------------------------------------------------------------------------------------------------------


 INCAR:
   ALGO = Conjugate
   KPAR = 2
   NCORE = 32
   ISMEAR = 0
   SIGMA = 0.01
   PREC = Accurate
   EDIFF = 1E-7
   ENCUT = 1000
   ISIF = 0
   METAGGA = SCAN
   LUSE_VDW = .TRUE.
   BPARAM = 15.7
   LASPH = .TRUE.
   SYMPREC = 1E-7
   NELM = 200
   LWAVE = .FALSE.
   LCHARGE = .FALSE.

 POTCAR:    PAW_PBE C_h 06Feb2004                 
 POTCAR:    PAW_PBE N_h 06Feb2004                 
 POTCAR:    PAW_PBE O_h 06Feb2004                 
 POTCAR:    PAW_PBE H_h 06Feb2004                 
 -----------------------------------------------------------------------------
|                                                                             |
|               ----> ADVICE to this user running VASP <----                  |
|                                                                             |
|     You have switched on vdW-DFT.                                           |
|     This routine was written and supplied by Jiri Klimes. We recommend      |
|     that you carefully read and cite the following publications:            |
|       J. Klimes, D.R. Bowler, A. Michelides                                 |
|          J. Phys.: Cond Matt. 22 022201 (2010)                              |
|       J. Klimes, D.R. Bowler, A. Michelides                                 |
|          Phys. Rev. B. 83, 195131 (2011)                                    |
|     and references therein.                                                 |
|                                                                             |
 -----------------------------------------------------------------------------

 POTCAR:    PAW_PBE C_h 06Feb2004                 
   VRHFIN =C: s2p2                                                                                  
   LEXCH  = PE                                                                                      
   EATOM  =   147.1560 eV,   10.8157 Ry                                                             
                                                                                                    
   TITEL  = PAW_PBE C_h 06Feb2004                                                                   
   LULTRA =        F    use ultrasoft PP ?                                                          
   IUNSCR =        1    unscreen: 0-lin 1-nonlin 2-no                                               
   RPACOR =    0.800    partial core radius                                                         
   POMASS =   12.011; ZVAL   =    4.000    mass and valenz                                          
   RCORE  =    1.100    outmost cutoff radius                                                       
   RWIGS  =    1.630; RWIGS  =    0.863    wigner-seitz radius (au A)                               
   ENMAX  =  700.000; ENMIN  =  500.000 eV                                                          
   ICORE  =        2    local potential                                                             
   LCOR   =        T    correct aug charges                                                         
   LPAW   =        T    paw PP                                                                      
   EAUG   =  946.768                                                                                
   DEXC   =    0.000                                                                                
   RMAX   =    1.128    core radius for proj-oper                                                   
   RAUG   =    1.300    factor for augmentation sphere                                              
   RDEP   =    1.162    radius for radial grids                                                     
   RDEPT  =    1.088    core radius for aug-charge                                                  
                                                                                                    
   Atomic configuration                                                                             
    4 entries                                                                                       
     n  l   j            E        occ.                                                              
     1  0  0.50      -273.3789   2.0000                                                             
     2  0  0.50       -13.7508   2.0000                                                             
     2  1  0.50        -5.2854   2.0000                                                             
     3  2  1.50        -5.4423   0.0000                                                             
   Description                                                                                      
     l       E           TYP  RCUT    TYP  RCUT                                                     
     0    -13.7508458     23  1.100                                                                 
     0     -8.2022199     23  1.100                                                                 
     1     -5.2854383     23  1.100                                                                 
     1      1.1560700     23  1.100                                                                 
     2     -5.4423304      7  1.100                                                                 
  local pseudopotential read in
  partial core-charges read in
  partial kinetic energy density read in
  atomic valenz-charges read in
  non local Contribution for L=           0  read in
    real space projection operators read in
  non local Contribution for L=           0  read in
    real space projection operators read in
  non local Contribution for L=           1  read in
    real space projection operators read in
  non local Contribution for L=           1  read in
    real space projection operators read in
    PAW grid and wavefunctions read in

   number of l-projection  operators is LMAX  =           4
   number of lm-projection operators is LMMAX =           8

 POTCAR:    PAW_PBE N_h 06Feb2004                 
   VRHFIN =N: s2p3                                                                                  
   LEXCH  = PE                                                                                      
   EATOM  =   264.5486 eV,   19.4438 Ry                                                             
                                                                                                    
   TITEL  = PAW_PBE N_h 06Feb2004                                                                   
   LULTRA =        F    use ultrasoft PP ?                                                          
   IUNSCR =        1    unscreen: 0-lin 1-nonlin 2-no                                               
   RPACOR =    0.800    partial core radius                                                         
   POMASS =   14.001; ZVAL   =    5.000    mass and valenz                                          
   RCORE  =    1.100    outmost cutoff radius                                                       
   RWIGS  =    1.480; RWIGS  =    0.783    wigner-seitz radius (au A)                               
   ENMAX  =  700.000; ENMIN  =  500.000 eV                                                          
   ICORE  =        2    local potential                                                             
   LCOR   =        T    correct aug charges                                                         
   LPAW   =        T    paw PP                                                                      
   EAUG   =  904.640                                                                                
   DEXC   =    0.000                                                                                
   RMAX   =    1.127    core radius for proj-oper                                                   
   RAUG   =    1.300    factor for augmentation sphere                                              
   RDEP   =    1.115    radius for radial grids                                                     
   RDEPT  =    1.106    core radius for aug-charge                                                  
                                                                                                    
   Atomic configuration                                                                             
    4 entries                                                                                       
     n  l   j            E        occ.                                                              
     1  0  0.50      -384.7179   2.0000                                                             
     2  0  0.50       -18.5828   2.0000                                                             
     2  1  0.50        -7.0898   3.0000                                                             
     3  2  1.50        -6.8029   0.0000                                                             
   Description                                                                                      
     l       E           TYP  RCUT    TYP  RCUT                                                     
     0    -18.5828117     23  1.100                                                                 
     0    -15.0750597     23  1.100                                                                 
     1     -7.0897851     23  1.100                                                                 
     1     -1.9663412     23  1.100                                                                 
     2     -6.8029130      7  1.100                                                                 
  local pseudopotential read in
  partial core-charges read in
  partial kinetic energy density read in
  kinetic energy density of atom read in
  atomic valenz-charges read in
  non local Contribution for L=           0  read in
    real space projection operators read in
  non local Contribution for L=           0  read in
    real space projection operators read in
  non local Contribution for L=           1  read in
    real space projection operators read in
  non local Contribution for L=           1  read in
    real space projection operators read in
    PAW grid and wavefunctions read in

   number of l-projection  operators is LMAX  =           4
   number of lm-projection operators is LMMAX =           8

 POTCAR:    PAW_PBE O_h 06Feb2004                 
   VRHFIN =O: s2p4                                                                                  
   LEXCH  = PE                                                                                      
   EATOM  =   432.3788 eV,   31.7789 Ry                                                             
                                                                                                    
   TITEL  = PAW_PBE O_h 06Feb2004                                                                   
   LULTRA =        F    use ultrasoft PP ?                                                          
   IUNSCR =        1    unscreen: 0-lin 1-nonlin 2-no                                               
   RPACOR =    0.800    partial core radius                                                         
   POMASS =   16.000; ZVAL   =    6.000    mass and valenz                                          
   RCORE  =    1.100    outmost cutoff radius                                                       
   RWIGS  =    1.400; RWIGS  =    0.741    wigner-seitz radius (au A)                               
   ENMAX  =  700.000; ENMIN  =  500.000 eV                                                          
   ICORE  =        2    local potential                                                             
   LCOR   =        T    correct aug charges                                                         
   LPAW   =        T    paw PP                                                                      
   EAUG   =  888.804                                                                                
   DEXC   =    0.000                                                                                
   RMAX   =    1.128    core radius for proj-oper                                                   
   RAUG   =    1.300    factor for augmentation sphere                                              
   RDEP   =    1.125    radius for radial grids                                                     
   RDEPT  =    1.088    core radius for aug-charge                                                  
                                                                                                    
   Atomic configuration                                                                             
    4 entries                                                                                       
     n  l   j            E        occ.                                                              
     1  0  0.50      -514.6923   2.0000                                                             
     2  0  0.50       -23.9615   2.0000                                                             
     2  1  0.50        -9.0305   4.0000                                                             
     3  2  1.50        -9.5241   0.0000                                                             
   Description                                                                                      
     l       E           TYP  RCUT    TYP  RCUT                                                     
     0    -23.9615319     23  1.100                                                                 
     0    -25.3221145     23  1.100                                                                 
     1     -9.0304911     23  1.100                                                                 
     1     -5.4802209     23  1.100                                                                 
     2     -9.5240782      7  1.100                                                                 
  local pseudopotential read in
  partial core-charges read in
  partial kinetic energy density read in
  atomic valenz-charges read in
  non local Contribution for L=           0  read in
    real space projection operators read in
  non local Contribution for L=           0  read in
    real space projection operators read in
  non local Contribution for L=           1  read in
    real space projection operators read in
  non local Contribution for L=           1  read in
    real space projection operators read in
    PAW grid and wavefunctions read in

   number of l-projection  operators is LMAX  =           4
   number of lm-projection operators is LMMAX =           8

 POTCAR:    PAW_PBE H_h 06Feb2004                 
   VRHFIN =H: ultrasoft test                                                                        
   LEXCH  = PE                                                                                      
   EATOM  =    12.4884 eV,    0.9179 Ry                                                             
                                                                                                    
   TITEL  = PAW_PBE H_h 06Feb2004                                                                   
   LULTRA =        F    use ultrasoft PP ?                                                          
   IUNSCR =        0    unscreen: 0-lin 1-nonlin 2-no                                               
   RPACOR =    0.000    partial core radius                                                         
   POMASS =    1.000; ZVAL   =    1.000    mass and valenz                                          
   RCORE  =    0.800    outmost cutoff radius                                                       
   RWIGS  =    0.700; RWIGS  =    0.370    wigner-seitz radius (au A)                               
   ENMAX  =  700.000; ENMIN  =  350.000 eV                                                          
   RCLOC  =    0.701    cutoff for local pot                                                        
   LCOR   =        T    correct aug charges                                                         
   LPAW   =        T    paw PP                                                                      
   EAUG   = 1000.000                                                                                
   RMAX   =    0.819    core radius for proj-oper                                                   
   RAUG   =    1.000    factor for augmentation sphere                                              
   RDEP   =    0.817    radius for radial grids                                                     
   RDEPT  =    0.817    core radius for aug-charge                                                  
                                                                                                    
   Atomic configuration                                                                             
    2 entries                                                                                       
     n  l   j            E        occ.                                                              
     1  0  0.50        -6.4927   1.0000                                                             
     2  1  0.50        -3.4015   0.0000                                                             
   Description                                                                                      
     l       E           TYP  RCUT    TYP  RCUT                                                     
     0     -6.4927493     23  0.800                                                                 
     0      6.8029130     23  0.800                                                                 
     1     -6.8029130     23  0.800                                                                 
  local pseudopotential read in
  atomic valenz-charges read in
  non local Contribution for L=           0  read in
    real space projection operators read in
  non local Contribution for L=           0  read in
    real space projection operators read in
  non local Contribution for L=           1  read in
    real space projection operators read in
    PAW grid and wavefunctions read in

   number of l-projection  operators is LMAX  =           3
   number of lm-projection operators is LMMAX =           5

 -----------------------------------------------------------------------------
|                                                                             |
|               ----> ADVICE to this user running VASP <----                  |
|                                                                             |
|     You have a (more or less) 'large supercell' and for larger cells it     |
|     might be more efficient to use real-space projection operators.         |
|     Therefore, try LREAL= Auto in the INCAR file.                           |
|     Mind: For very accurate calculation, you might also keep the            |
|     reciprocal projection scheme (i.e. LREAL=.FALSE.).                      |
|                                                                             |
 -----------------------------------------------------------------------------

  PAW_PBE C_h 06Feb2004                 :
 energy of atom  1       EATOM= -147.1560
 kinetic energy error for atom=    0.0031 (will be added to EATOM!!)
  PAW_PBE N_h 06Feb2004                 :
 energy of atom  2       EATOM= -264.5486
 kinetic energy error for atom=    0.0081 (will be added to EATOM!!)
  PAW_PBE O_h 06Feb2004                 :
 energy of atom  3       EATOM= -432.3788
 kinetic energy error for atom=    0.0171 (will be added to EATOM!!)
  PAW_PBE H_h 06Feb2004                 :
 energy of atom  4       EATOM=  -12.4884
 kinetic energy error for atom=    0.0006 (will be added to EATOM!!)


 POSCAR:  C  N  O  H
  positions in cartesian coordinates
  No initial velocities read in

 METAGGA = SCAN                                        LMAXTAU =  6    LMIXTAU =  F

 exchange correlation table for  LEXCH =        8
   RHO(1)=    0.500       N(1)  =     2000
   RHO(2)=  100.500       N(2)  =     4000

 VTST: version 4.1, (05/19/21)

 CHAIN: initializing optimizer
 
 OPT: Using VASP Dynamics algorithm
 CHAIN: Read ICHAIN            0

 POSCAR:  C  N  O  H
  positions in cartesian coordinates
  No initial velocities read in



--------------------------------------------------------------------------------------------------------


 ion  position               nearest neighbor table
   1  0.862  0.796  0.366-  15 1.10  17 1.10  13 1.10   3 1.51
   2  0.138  0.204  0.634-  16 1.10  18 1.10  14 1.10   4 1.51
   3  0.782  0.599  0.276-  21 1.10  19 1.10   9 1.46   1 1.51
   4  0.218  0.401  0.724-  22 1.10  20 1.10  10 1.46   2 1.51
   5  0.008  0.280  0.153-  11 1.24   7 1.34   9 1.35
   6  0.992  0.720  0.847-  12 1.24   8 1.34  10 1.35
   7  0.252  0.163  0.132-  23 1.02  25 1.03   5 1.34
   8  0.748  0.837  0.868-  24 1.02  26 1.03   6 1.34
   9  0.037  0.465  0.240-   5 1.35   3 1.46
  10  0.963  0.535  0.760-   6 1.35   4 1.46
  11  0.780  0.225  0.103-   5 1.24
  12  0.220  0.775  0.897-   6 1.24
  13  0.677  0.902  0.398-   1 1.10
  14  0.323  0.098  0.602-   2 1.10
  15  0.020  0.782  0.495-   1 1.10
  16  0.980  0.218  0.505-   2 1.10
  17  0.945  0.858  0.273-   1 1.10
  18  0.055  0.142  0.727-   2 1.10
  19  0.697  0.537  0.368-   3 1.10
  20  0.303  0.463  0.632-   4 1.10
  21  0.628  0.610  0.145-   3 1.10
  22  0.372  0.390  0.855-   4 1.10
  23  0.428  0.221  0.155-   7 1.02
  24  0.572  0.779  0.845-   8 1.02
  25  0.247  0.025  0.055-   7 1.03
  26  0.753  0.975  0.945-   8 1.03

  LATTYP: Found a triclinic cell.
 ALAT       =     5.0510000000
 B/A-ratio  =     2.1551506031
 C/A-ratio  =     2.0563667669
 COS(alpha) =     0.0114247620
 COS(beta)  =     0.4593389698
 COS(gamma) =     0.7792973105
  
  Lattice vectors:
  
 A1 = (  -5.0510000000,   0.0000000000,   0.0000000000)
 A2 = (  -8.4831700000,   6.8215500000,   0.0000000000)
 A3 = (  -4.7710200000,  -5.7438000000,  -7.2201000000)


Analysis of symmetry for initial positions (statically):
=====================================================================
 Subroutine PRICEL returns:
 Original cell was already a primitive cell.
 

 Routine SETGRP: Setting up the symmetry group for a 
 triclinic supercell.


 Subroutine GETGRP returns: Found  1 space group operations
 (whereof  1 operations were pure point group operations)
 out of a pool of  2 trial point group operations.


The static configuration has the point symmetry C_1 .


Analysis of symmetry for dynamics (positions and initial velocities):
=====================================================================
 Subroutine PRICEL returns:
 Original cell was already a primitive cell.
 

 Routine SETGRP: Setting up the symmetry group for a 
 triclinic supercell.


 Subroutine GETGRP returns: Found  1 space group operations
 (whereof  1 operations were pure point group operations)
 out of a pool of  2 trial point group operations.


The dynamic configuration has the point symmetry C_1 .


 Subroutine INISYM returns: Found  1 space group operations
 (whereof  1 operations are pure point group operations),
 and found     1 'primitive' translations


----------------------------------------------------------------------------------------

                                     Primitive cell                                     

  volume of cell :     248.7732

  direct lattice vectors                    reciprocal lattice vectors
     5.051000000  0.000000000  0.000000000     0.197980598 -0.046983007  0.045053615
     1.618830000  6.821550000  0.000000000    -0.000000000  0.146594249  0.021882239
    -1.898810000 -1.077750000  7.220100000     0.000000000  0.000000000  0.138502237

  length of vectors
     5.051000000  7.011002423  7.543001292     0.208407169  0.148218441  0.138502237

  position of ions in fractional coordinates (direct lattice)
     0.861972589  0.796445238  0.365859022
     0.138064667  0.203535027  0.634154269
     0.781578986  0.599200900  0.276319201
     0.218453392  0.400780539  0.723688095
     0.008079648  0.279705926  0.153298677
     0.991920352  0.720280294  0.846703236
     0.252468354  0.162825871  0.131697782
     0.747561775  0.837144037  0.868309565
     0.036678920  0.464558963  0.240074308
     0.963348325  0.535416572  0.759931229
     0.779667646  0.225134261  0.102897307
     0.220345002  0.774846955  0.897083248
     0.677140016  0.902413565  0.398399101
     0.322905155  0.097572764  0.601620467
     0.019738651  0.781948789  0.494963713
     0.980308668  0.218017261  0.505041485
     0.945103312  0.857539709  0.272613991
     0.054939063  0.142431463  0.727397938
     0.697329547  0.536766822  0.368335189
     0.302705369  0.463210509  0.631671772
     0.627873694  0.610106943  0.145092024
     0.372157345  0.389873471  0.854915837
     0.428225287  0.220651294  0.155046496
     0.571800867  0.779323034  0.844962680
     0.247154217  0.025305469  0.054523041
     0.752858552  0.974694531  0.945476959

  ion indices of the primitive-cell ions
   primitive index   ion index
                 1           1
                 2           2
                 3           3
                 4           4
                 5           5
                 6           6
                 7           7
                 8           8
                 9           9
                10          10
                11          11
                12          12
                13          13
                14          14
                15          15
                16          16
                17          17
                18          18
                19          19
                20          20
                21          21
                22          22
                23          23
                24          24
                25          25
                26          26

----------------------------------------------------------------------------------------



 KPOINTS: auto                                    

Automatic generation of k-mesh.
 Grid dimensions read from file:
 generate k-points for:    6    4    4

 Generating k-lattice:

  Cartesian coordinates                     Fractional coordinates (reciprocal lattice)
     0.032996766 -0.007830501  0.007508936     0.166666667 -0.000000000  0.000000000
    -0.000000000  0.036648562  0.005470560     0.000000000  0.250000000  0.000000000
     0.000000000  0.000000000  0.034625559     0.000000000  0.000000000  0.250000000

  Length of vectors
     0.034734528  0.037054610  0.034625559

  Shift w.r.t. Gamma in fractional coordinates (k-lattice)
     0.000000000  0.000000000  0.000000000

 
 Subroutine IBZKPT returns following result:
 ===========================================
 
 Found     52 irreducible k-points:
 
 Following reciprocal coordinates:
            Coordinates               Weight
  0.000000  0.000000  0.000000      1.000000
  0.166667  0.000000  0.000000      2.000000
  0.333333  0.000000  0.000000      2.000000
  0.500000  0.000000  0.000000      1.000000
  0.000000  0.250000  0.000000      2.000000
  0.166667  0.250000  0.000000      2.000000
  0.333333  0.250000  0.000000      2.000000
  0.500000  0.250000  0.000000      2.000000
 -0.333333  0.250000  0.000000      2.000000
 -0.166667  0.250000  0.000000      2.000000
  0.000000  0.500000  0.000000      1.000000
  0.166667  0.500000  0.000000      2.000000
  0.333333  0.500000  0.000000      2.000000
  0.500000  0.500000  0.000000      1.000000
  0.000000  0.000000  0.250000      2.000000
  0.166667  0.000000  0.250000      2.000000
  0.333333  0.000000  0.250000      2.000000
  0.500000  0.000000  0.250000      2.000000
 -0.333333  0.000000  0.250000      2.000000
 -0.166667  0.000000  0.250000      2.000000
  0.000000  0.250000  0.250000      2.000000
  0.166667  0.250000  0.250000      2.000000
  0.333333  0.250000  0.250000      2.000000
  0.500000  0.250000  0.250000      2.000000
 -0.333333  0.250000  0.250000      2.000000
 -0.166667  0.250000  0.250000      2.000000
  0.000000  0.500000  0.250000      2.000000
  0.166667  0.500000  0.250000      2.000000
  0.333333  0.500000  0.250000      2.000000
  0.500000  0.500000  0.250000      2.000000
 -0.333333  0.500000  0.250000      2.000000
 -0.166667  0.500000  0.250000      2.000000
  0.000000 -0.250000  0.250000      2.000000
  0.166667 -0.250000  0.250000      2.000000
  0.333333 -0.250000  0.250000      2.000000
  0.500000 -0.250000  0.250000      2.000000
 -0.333333 -0.250000  0.250000      2.000000
 -0.166667 -0.250000  0.250000      2.000000
  0.000000  0.000000  0.500000      1.000000
  0.166667  0.000000  0.500000      2.000000
  0.333333  0.000000  0.500000      2.000000
  0.500000  0.000000  0.500000      1.000000
  0.000000  0.250000  0.500000      2.000000
  0.166667  0.250000  0.500000      2.000000
  0.333333  0.250000  0.500000      2.000000
  0.500000  0.250000  0.500000      2.000000
 -0.333333  0.250000  0.500000      2.000000
 -0.166667  0.250000  0.500000      2.000000
  0.000000  0.500000  0.500000      1.000000
  0.166667  0.500000  0.500000      2.000000
  0.333333  0.500000  0.500000      2.000000
  0.500000  0.500000  0.500000      1.000000
 
 Following cartesian coordinates:
            Coordinates               Weight
  0.000000  0.000000  0.000000      1.000000
  0.032997 -0.007831  0.007509      2.000000
  0.065994 -0.015661  0.015018      2.000000
  0.098990 -0.023492  0.022527      1.000000
  0.000000  0.036649  0.005471      2.000000
  0.032997  0.028818  0.012979      2.000000
  0.065994  0.020988  0.020488      2.000000
  0.098990  0.013157  0.027997      2.000000
 -0.065994  0.052310 -0.009547      2.000000
 -0.032997  0.044479 -0.002038      2.000000
  0.000000  0.073297  0.010941      1.000000
  0.032997  0.065467  0.018450      2.000000
  0.065994  0.057636  0.025959      2.000000
  0.098990  0.049806  0.033468      1.000000
  0.000000  0.000000  0.034626      2.000000
  0.032997 -0.007831  0.042134      2.000000
  0.065994 -0.015661  0.049643      2.000000
  0.098990 -0.023492  0.057152      2.000000
 -0.065994  0.015661  0.019608      2.000000
 -0.032997  0.007831  0.027117      2.000000
  0.000000  0.036649  0.040096      2.000000
  0.032997  0.028818  0.047605      2.000000
  0.065994  0.020988  0.055114      2.000000
  0.098990  0.013157  0.062623      2.000000
 -0.065994  0.052310  0.025078      2.000000
 -0.032997  0.044479  0.032587      2.000000
  0.000000  0.073297  0.045567      2.000000
  0.032997  0.065467  0.053076      2.000000
  0.065994  0.057636  0.060585      2.000000
  0.098990  0.049806  0.068093      2.000000
 -0.065994  0.088958  0.030549      2.000000
 -0.032997  0.081128  0.038058      2.000000
  0.000000 -0.036649  0.029155      2.000000
  0.032997 -0.044479  0.036664      2.000000
  0.065994 -0.052310  0.044173      2.000000
  0.098990 -0.060140  0.051682      2.000000
 -0.065994 -0.020988  0.014137      2.000000
 -0.032997 -0.028818  0.021646      2.000000
  0.000000  0.000000  0.069251      1.000000
  0.032997 -0.007831  0.076760      2.000000
  0.065994 -0.015661  0.084269      2.000000
  0.098990 -0.023492  0.091778      1.000000
  0.000000  0.036649  0.074722      2.000000
  0.032997  0.028818  0.082231      2.000000
  0.065994  0.020988  0.089740      2.000000
  0.098990  0.013157  0.097248      2.000000
 -0.065994  0.052310  0.059704      2.000000
 -0.032997  0.044479  0.067213      2.000000
  0.000000  0.073297  0.080192      1.000000
  0.032997  0.065467  0.087701      2.000000
  0.065994  0.057636  0.095210      2.000000
  0.098990  0.049806  0.102719      1.000000
 


--------------------------------------------------------------------------------------------------------




 Dimension of arrays:
   k-points           NKPTS =     52   k-points in BZ     NKDIM =     52   number of bands    NBANDS=     52
   number of dos      NEDOS =    301   number of ions     NIONS =     26
   non local maximal  LDIM  =      4   non local SUM 2l+1 LMDIM =      8
   total plane-waves  NPLWV = 311040
   max r-space proj   IRMAX =      1   max aug-charges    IRDMAX=   9317
   dimension x,y,z NGX =    54 NGY =   72 NGZ =   80
   dimension x,y,z NGXF=   108 NGYF=  144 NGZF=  160
   support grid    NGXF=   108 NGYF=  144 NGZF=  160
   ions per type =               6   2   4  14
   NGX,Y,Z   is equivalent  to a cutoff of  17.77, 17.07, 17.63 a.u.
   NGXF,Y,Z  is equivalent  to a cutoff of  35.55, 34.15, 35.26 a.u.

 SYSTEM =  unknown system                          
 POSCAR =   C  N  O  H                             

 Startparameter for this run:
   NWRITE =      2    write-flag & timer
   PREC   = accura    normal or accurate (medium, high low for compatibility)
   ISTART =      0    job   : 0-new  1-cont  2-samecut
   ICHARG =      2    charge: 1-file 2-atom 10-const
   ISPIN  =      1    spin polarized calculation?
   LNONCOLLINEAR =      F non collinear calculations
   LSORBIT =      F    spin-orbit coupling
   INIWAV =      1    electr: 0-lowe 1-rand  2-diag
   LASPH  =      T    aspherical Exc in radial PAW
 Electronic Relaxation 1
   ENCUT  = 1000.0 eV  73.50 Ry    8.57 a.u.  13.02 18.08 19.45*2*pi/ulx,y,z
   ENINI  = 1000.0     initial cutoff
   ENAUG  = 1000.0 eV  augmentation charge cutoff
   NELM   =    200;   NELMIN=  2; NELMDL= -5     # of ELM steps 
   EDIFF  = 0.1E-06   stopping-criterion for ELM
   LREAL  =      F    real-space projection
   NLSPLINE    = F    spline interpolate recip. space projectors
   LCOMPAT=      F    compatible to vasp.4.4
   GGA_COMPAT  = T    GGA compatible to vasp.4.4-vasp.4.6
   LMAXPAW     = -100 max onsite density
   LMAXMIX     =    2 max onsite mixed and CHGCAR
   VOSKOWN=      0    Vosko Wilk Nusair interpolation
   ROPT   =    0.00000   0.00000   0.00000   0.00000
 Ionic relaxation
   EDIFFG = 0.1E-05   stopping-criterion for IOM
   NSW    =      0    number of steps for IOM
   NBLOCK =      1;   KBLOCK =      1    inner block; outer block 
   IBRION =     -1    ionic relax: 0-MD 1-quasi-New 2-CG
   NFREE  =      0    steps in history (QN), initial steepest desc. (CG)
   ISIF   =      0    stress and relaxation
   IWAVPR =     10    prediction:  0-non 1-charg 2-wave 3-comb
   ISYM   =      2    0-nonsym 1-usesym 2-fastsym
   LCORR  =      T    Harris-Foulkes like correction to forces

   POTIM  = 0.5000    time-step for ionic-motion
   TEIN   =    0.0    initial temperature
   TEBEG  =    0.0;   TEEND  =   0.0 temperature during run
   SMASS  =  -3.00    Nose mass-parameter (am)
   estimated Nose-frequenzy (Omega)   =  0.10E-29 period in steps = 0.13E+47 mass=  -0.583E-27a.u.
   SCALEE = 1.0000    scale energy and forces
   NPACO  =    256;   APACO  = 10.0  distance and # of slots for P.C.
   PSTRESS=    0.0 pullay stress

  Mass of Ions in am
   POMASS =  12.01 14.00 16.00  1.00
  Ionic Valenz
   ZVAL   =   4.00  5.00  6.00  1.00
  Atomic Wigner-Seitz radii
   RWIGS  =  -1.00 -1.00 -1.00 -1.00
  virtual crystal weights 
   VCA    =   1.00  1.00  1.00  1.00
   NELECT =      72.0000    total number of electrons
   NUPDOWN=      -1.0000    fix difference up-down

 DOS related values:
   EMIN   =  10.00;   EMAX   =-10.00  energy-range for DOS
   EFERMI =   0.00;   METHOD = LEGACY      
   ISMEAR =     0;   SIGMA  =   0.01  broadening in eV -4-tet -1-fermi 0-gaus

 Electronic relaxation 2 (details)
   IALGO  =     58    algorithm
   LDIAG  =      T    sub-space diagonalisation (order eigenvalues)
   LSUBROT=      F    optimize rotation matrix (better conditioning)
   TURBO    =      0    0=normal 1=particle mesh
   IRESTART =      0    0=no restart 2=restart with 2 vectors
   NREBOOT  =      0    no. of reboots
   NMIN     =      0    reboot dimension
   EREF     =   0.00    reference energy to select bands
   IMIX   =      4    mixing-type and parameters
     AMIX     =   0.40;   BMIX     =  1.00
     AMIX_MAG =   1.60;   BMIX_MAG =  1.00
     AMIN     =   0.10
     WC   =   100.;   INIMIX=   1;  MIXPRE=   1;  MAXMIX= -45

 Intra band minimization:
   WEIMIN = 0.0000     energy-eigenvalue tresh-hold
   EBREAK =  0.48E-09  absolut break condition
   DEPER  =   0.30     relativ break condition  

   TIME   =   0.40     timestep for ELM

  volume/ion in A,a.u.               =       9.57        64.57
  Fermi-wavevector in a.u.,A,eV,Ry     =   1.082890  2.046366 15.954890  1.172651
  Thomas-Fermi vector in A             =   2.218943

 Write flags
   LWAVE        =      F    write WAVECAR
   LDOWNSAMPLE  =      F    k-point downsampling of WAVECAR
   LCHARG       =      T    write CHGCAR
   LVTOT        =      F    write LOCPOT, total local potential
   LVHAR        =      F    write LOCPOT, Hartree potential only
   LELF         =      F    write electronic localiz. function (ELF)
   LORBIT       =      0    0 simple, 1 ext, 2 COOP (PROOUT), +10 PAW based schemes


 Dipole corrections
   LMONO  =      F    monopole corrections only (constant potential shift)
   LDIPOL =      F    correct potential (dipole corrections)
   IDIPOL =      0    1-x, 2-y, 3-z, 4-all directions 
   EPSILON=  1.0000000 bulk dielectric constant

 Exchange correlation treatment:
   GGA     =    --    GGA type
   LEXCH   =     8    internal setting for exchange type
   LIBXC   =     F    Libxc                    
   VOSKOWN =     0    Vosko Wilk Nusair interpolation
   LHFCALC =     F    Hartree Fock is set to
   LHFONE  =     F    Hartree Fock one center treatment
   AEXX    =    0.0000 exact exchange contribution

 vdW DFT:
   LUSE_VDW   =     T    switch on vdW DFT
   IVDW_NL    =     2    kernel type
   LSPIN_VDW  =     F    use spin-polarized vdW DFT
   Zab_VDW    =-.8491    correlation parameter
   PARAM1     =0.1234
   PARAM2     =1.0000
   PARAM3     =0.0000
   -- rVV10 --
   BPARAM     =15.7000
   CPARAM     = 0.0093

 Linear response parameters
   LEPSILON=     F    determine dielectric tensor
   LRPA    =     F    only Hartree local field effects (RPA)
   LNABLA  =     F    use nabla operator in PAW spheres
   LVEL    =     F    velocity operator in full k-point grid
   CSHIFT  =0.1000    complex shift for real part using Kramers Kronig
   OMEGAMAX=  -1.0    maximum frequency
   DEG_THRESHOLD= 0.2000000E-02 threshold for treating states as degnerate
   RTIME   =   -0.100 relaxation time in fs
  (WPLASMAI=    0.000 imaginary part of plasma frequency in eV, 0.658/RTIME)
   DFIELD  = 0.0000000 0.0000000 0.0000000 field for delta impulse in time

  Optional k-point grid parameters
   LKPOINTS_OPT  =     F    use optional k-point grid
   KPOINTS_OPT_MODE=     1    mode for optional k-point grid

 Orbital magnetization related:
   ORBITALMAG=     F  switch on orbital magnetization
   LCHIMAG   =     F  perturbation theory with respect to B field
   DQ        =  0.001000  dq finite difference perturbation B field
   LLRAUG    =     F  two centre corrections for induced B field
   LBONE     =     F  B-component reconstruction in AE one-centre
   LVGVCALC  =     T  calculate vGv susceptibility
   LVGVAPPL  =     F  apply vGv susceptibility instead of pGv for G=0

 Random number generation:
   RANDOM_GENERATOR = DEFAULT
   PCG_SEED         = not used


--------------------------------------------------------------------------------------------------------


 Static calculation
 charge density and potential will be updated during run
 non-spin polarized calculation
 Conjugate gradient for all bands (Freysoldt, et al. PRB 79, 241103 (2009))
 preconditioned conjugated gradient                                        
 perform sub-space diagonalisation
    before iterative eigenvector-optimisation
 modified Broyden-mixing scheme, WC =      100.0
 initial mixing is a Kerker type mixing with AMIX =  0.4000 and BMIX =      1.0000
 Hartree-type preconditioning will be used
 using additional bands           16
 reciprocal scheme for non local part
 use partial core corrections
 no Harris-corrections to forces 
 use gradient corrections 
 use of overlap-Matrix (Vanderbilt PP)
 Gauss-broadening in eV      SIGMA  =   0.01


--------------------------------------------------------------------------------------------------------


  energy-cutoff  :     1000.00
  volume of cell :      248.77
      direct lattice vectors                 reciprocal lattice vectors
     5.051000000  0.000000000  0.000000000     0.197980598 -0.046983007  0.045053615
     1.618830000  6.821550000  0.000000000    -0.000000000  0.146594249  0.021882239
    -1.898810000 -1.077750000  7.220100000     0.000000000  0.000000000  0.138502237

  length of vectors
     5.051000000  7.011002423  7.543001292     0.208407169  0.148218441  0.138502237



 k-points in units of 2pi/SCALE and weight: auto                                    
   0.00000000  0.00000000  0.00000000       0.010
   0.03299677 -0.00783050  0.00750894       0.021
   0.06599353 -0.01566100  0.01501787       0.021
   0.09899030 -0.02349150  0.02252681       0.010
   0.00000000  0.03664856  0.00547056       0.021
   0.03299677  0.02881806  0.01297950       0.021
   0.06599353  0.02098756  0.02048843       0.021
   0.09899030  0.01315706  0.02799737       0.021
  -0.06599353  0.05230956 -0.00954731       0.021
  -0.03299677  0.04447906 -0.00203838       0.021
   0.00000000  0.07329712  0.01094112       0.010
   0.03299677  0.06546662  0.01845006       0.021
   0.06599353  0.05763612  0.02595899       0.021
   0.09899030  0.04980562  0.03346793       0.010
   0.00000000  0.00000000  0.03462556       0.021
   0.03299677 -0.00783050  0.04213449       0.021
   0.06599353 -0.01566100  0.04964343       0.021
   0.09899030 -0.02349150  0.05715237       0.021
  -0.06599353  0.01566100  0.01960769       0.021
  -0.03299677  0.00783050  0.02711662       0.021
   0.00000000  0.03664856  0.04009612       0.021
   0.03299677  0.02881806  0.04760505       0.021
   0.06599353  0.02098756  0.05511399       0.021
   0.09899030  0.01315706  0.06262293       0.021
  -0.06599353  0.05230956  0.02507825       0.021
  -0.03299677  0.04447906  0.03258718       0.021
   0.00000000  0.07329712  0.04556668       0.021
   0.03299677  0.06546662  0.05307561       0.021
   0.06599353  0.05763612  0.06058455       0.021
   0.09899030  0.04980562  0.06809349       0.021
  -0.06599353  0.08895813  0.03054881       0.021
  -0.03299677  0.08112763  0.03805774       0.021
   0.00000000 -0.03664856  0.02915500       0.021
   0.03299677 -0.04447906  0.03666394       0.021
   0.06599353 -0.05230956  0.04417287       0.021
   0.09899030 -0.06014007  0.05168181       0.021
  -0.06599353 -0.02098756  0.01413713       0.021
  -0.03299677 -0.02881806  0.02164606       0.021
   0.00000000  0.00000000  0.06925112       0.010
   0.03299677 -0.00783050  0.07676005       0.021
   0.06599353 -0.01566100  0.08426899       0.021
   0.09899030 -0.02349150  0.09177793       0.010
   0.00000000  0.03664856  0.07472168       0.021
   0.03299677  0.02881806  0.08223061       0.021
   0.06599353  0.02098756  0.08973955       0.021
   0.09899030  0.01315706  0.09724849       0.021
  -0.06599353  0.05230956  0.05970381       0.021
  -0.03299677  0.04447906  0.06721274       0.021
   0.00000000  0.07329712  0.08019224       0.010
   0.03299677  0.06546662  0.08770117       0.021
   0.06599353  0.05763612  0.09521011       0.021
   0.09899030  0.04980562  0.10271905       0.010

 k-points in reciprocal lattice and weights: auto                                    
   0.00000000  0.00000000  0.00000000       0.010
   0.16666667  0.00000000  0.00000000       0.021
   0.33333333  0.00000000  0.00000000       0.021
   0.50000000  0.00000000  0.00000000       0.010
   0.00000000  0.25000000  0.00000000       0.021
   0.16666667  0.25000000  0.00000000       0.021
   0.33333333  0.25000000  0.00000000       0.021
   0.50000000  0.25000000  0.00000000       0.021
  -0.33333333  0.25000000  0.00000000       0.021
  -0.16666667  0.25000000  0.00000000       0.021
   0.00000000  0.50000000  0.00000000       0.010
   0.16666667  0.50000000  0.00000000       0.021
   0.33333333  0.50000000  0.00000000       0.021
   0.50000000  0.50000000  0.00000000       0.010
   0.00000000  0.00000000  0.25000000       0.021
   0.16666667  0.00000000  0.25000000       0.021
   0.33333333  0.00000000  0.25000000       0.021
   0.50000000  0.00000000  0.25000000       0.021
  -0.33333333  0.00000000  0.25000000       0.021
  -0.16666667  0.00000000  0.25000000       0.021
   0.00000000  0.25000000  0.25000000       0.021
   0.16666667  0.25000000  0.25000000       0.021
   0.33333333  0.25000000  0.25000000       0.021
   0.50000000  0.25000000  0.25000000       0.021
  -0.33333333  0.25000000  0.25000000       0.021
  -0.16666667  0.25000000  0.25000000       0.021
   0.00000000  0.50000000  0.25000000       0.021
   0.16666667  0.50000000  0.25000000       0.021
   0.33333333  0.50000000  0.25000000       0.021
   0.50000000  0.50000000  0.25000000       0.021
  -0.33333333  0.50000000  0.25000000       0.021
  -0.16666667  0.50000000  0.25000000       0.021
   0.00000000 -0.25000000  0.25000000       0.021
   0.16666667 -0.25000000  0.25000000       0.021
   0.33333333 -0.25000000  0.25000000       0.021
   0.50000000 -0.25000000  0.25000000       0.021
  -0.33333333 -0.25000000  0.25000000       0.021
  -0.16666667 -0.25000000  0.25000000       0.021
   0.00000000  0.00000000  0.50000000       0.010
   0.16666667  0.00000000  0.50000000       0.021
   0.33333333  0.00000000  0.50000000       0.021
   0.50000000  0.00000000  0.50000000       0.010
   0.00000000  0.25000000  0.50000000       0.021
   0.16666667  0.25000000  0.50000000       0.021
   0.33333333  0.25000000  0.50000000       0.021
   0.50000000  0.25000000  0.50000000       0.021
  -0.33333333  0.25000000  0.50000000       0.021
  -0.16666667  0.25000000  0.50000000       0.021
   0.00000000  0.50000000  0.50000000       0.010
   0.16666667  0.50000000  0.50000000       0.021
   0.33333333  0.50000000  0.50000000       0.021
   0.50000000  0.50000000  0.50000000       0.010

 position of ions in fractional coordinates (direct lattice) 
   0.86197259  0.79644524  0.36585902
   0.13806467  0.20353503  0.63415427
   0.78157899  0.59920090  0.27631920
   0.21845339  0.40078054  0.72368810
   0.00807965  0.27970593  0.15329868
   0.99192035  0.72028029  0.84670324
   0.25246835  0.16282587  0.13169778
   0.74756178  0.83714404  0.86830956
   0.03667892  0.46455896  0.24007431
   0.96334832  0.53541657  0.75993123
   0.77966765  0.22513426  0.10289731
   0.22034500  0.77484696  0.89708325
   0.67714002  0.90241356  0.39839910
   0.32290515  0.09757276  0.60162047
   0.01973865  0.78194879  0.49496371
   0.98030867  0.21801726  0.50504149
   0.94510331  0.85753971  0.27261399
   0.05493906  0.14243146  0.72739794
   0.69732955  0.53676682  0.36833519
   0.30270537  0.46321051  0.63167177
   0.62787369  0.61010694  0.14509202
   0.37215734  0.38987347  0.85491584
   0.42822529  0.22065129  0.15504650
   0.57180087  0.77932303  0.84496268
   0.24715422  0.02530547  0.05452304
   0.75285855  0.97469453  0.94547696

 position of ions in cartesian coordinates  (Angst):
   4.94843622  5.03868645  2.64153873
  -0.17728522  0.70496460  4.57865724
   4.39308219  3.78967588  1.99505226
   0.37805745  1.95398964  5.22510042
   0.20252159  1.74281031  1.10683178
   4.56847247  4.00089363  6.11328203
   1.28873600  0.96878754  0.95087115
   3.48237352  4.77479927  6.26928189
   0.48145171  2.91027211  1.73336051
   4.28965578  2.83335504  5.48677947
   4.10717294  1.42486705  0.74292884
   0.66391746  4.31882578  6.47703076
   4.12460418  5.72648462  2.87648135
   0.64658470  0.01720103  4.34375993
   0.42570004  4.80065562  3.57368751
   4.34549414  0.94290719  3.64645003
   5.64428566  5.55594027  1.96830028
  -0.87312095  0.18765022  5.25188585
   3.69174724  3.26460847  2.65941690
   1.07939921  2.47902940  4.56073336
   3.88354726  4.00550209  1.04757892
   0.88758288  1.73815583  6.17257783
   2.22575902  1.33808247  1.11945121
   2.54533410  4.40553251  6.10071505
   1.18581231  0.11386032  0.39366181
   3.58527219  5.62993968  6.82643819



--------------------------------------------------------------------------------------------------------


 k-point   1 :   0.0000 0.0000 0.0000  plane waves:   17851
 k-point   2 :   0.1667 0.0000 0.0000  plane waves:   17854
 k-point   3 :   0.3333 0.0000 0.0000  plane waves:   17868
 k-point   4 :   0.5000 0.0000 0.0000  plane waves:   17838
 k-point   5 :   0.0000 0.2500 0.0000  plane waves:   17836
 k-point   6 :   0.1667 0.2500 0.0000  plane waves:   17859
 k-point   7 :   0.3333 0.2500 0.0000  plane waves:   17872
 k-point   8 :   0.5000 0.2500 0.0000  plane waves:   17882
 k-point   9 :  -0.3333 0.2500 0.0000  plane waves:   17869
 k-point  10 :  -0.1667 0.2500 0.0000  plane waves:   17859
 k-point  11 :   0.0000 0.5000 0.0000  plane waves:   17850
 k-point  12 :   0.1667 0.5000 0.0000  plane waves:   17878
 k-point  13 :   0.3333 0.5000 0.0000  plane waves:   17889
 k-point  14 :   0.5000 0.5000 0.0000  plane waves:   17900
 k-point  15 :   0.0000 0.0000 0.2500  plane waves:   17825
 k-point  16 :   0.1667 0.0000 0.2500  plane waves:   17860
 k-point  17 :   0.3333 0.0000 0.2500  plane waves:   17860
 k-point  18 :   0.5000 0.0000 0.2500  plane waves:   17861
 k-point  19 :  -0.3333 0.0000 0.2500  plane waves:   17861
 k-point  20 :  -0.1667 0.0000 0.2500  plane waves:   17861
 k-point  21 :   0.0000 0.2500 0.2500  plane waves:   17856
 k-point  22 :   0.1667 0.2500 0.2500  plane waves:   17843
 k-point  23 :   0.3333 0.2500 0.2500  plane waves:   17859
 k-point  24 :   0.5000 0.2500 0.2500  plane waves:   17878
 k-point  25 :  -0.3333 0.2500 0.2500  plane waves:   17870
 k-point  26 :  -0.1667 0.2500 0.2500  plane waves:   17879
 k-point  27 :   0.0000 0.5000 0.2500  plane waves:   17856
 k-point  28 :   0.1667 0.5000 0.2500  plane waves:   17837
 k-point  29 :   0.3333 0.5000 0.2500  plane waves:   17867
 k-point  30 :   0.5000 0.5000 0.2500  plane waves:   17901
 k-point  31 :  -0.3333 0.5000 0.2500  plane waves:   17882
 k-point  32 :  -0.1667 0.5000 0.2500  plane waves:   17881
 k-point  33 :   0.0000-0.2500 0.2500  plane waves:   17846
 k-point  34 :   0.1667-0.2500 0.2500  plane waves:   17862
 k-point  35 :   0.3333-0.2500 0.2500  plane waves:   17873
 k-point  36 :   0.5000-0.2500 0.2500  plane waves:   17877
 k-point  37 :  -0.3333-0.2500 0.2500  plane waves:   17903
 k-point  38 :  -0.1667-0.2500 0.2500  plane waves:   17878
 k-point  39 :   0.0000 0.0000 0.5000  plane waves:   17824
 k-point  40 :   0.1667 0.0000 0.5000  plane waves:   17851
 k-point  41 :   0.3333 0.0000 0.5000  plane waves:   17848
 k-point  42 :   0.5000 0.0000 0.5000  plane waves:   17840
 k-point  43 :   0.0000 0.2500 0.5000  plane waves:   17833
 k-point  44 :   0.1667 0.2500 0.5000  plane waves:   17854
 k-point  45 :   0.3333 0.2500 0.5000  plane waves:   17882
 k-point  46 :   0.5000 0.2500 0.5000  plane waves:   17867
 k-point  47 :  -0.3333 0.2500 0.5000  plane waves:   17865
 k-point  48 :  -0.1667 0.2500 0.5000  plane waves:   17856
 k-point  49 :   0.0000 0.5000 0.5000  plane waves:   17818
 k-point  50 :   0.1667 0.5000 0.5000  plane waves:   17842
 k-point  51 :   0.3333 0.5000 0.5000  plane waves:   17873
 k-point  52 :   0.5000 0.5000 0.5000  plane waves:   17868

 maximum and minimum number of plane-waves per node :       577      532

 maximum number of plane-waves:     17903
 maximum index in each direction: 
   IXMAX=   13   IYMAX=   18   IZMAX=   19
   IXMIN=  -13   IYMIN=  -18   IZMIN=  -19


 parallel 3D FFT for wavefunctions:
    minimum data exchange during FFTs selected (reduces bandwidth)
 parallel 3D FFT for charge:
    minimum data exchange during FFTs selected (reduces bandwidth)


 total amount of memory used by VASP MPI-rank0    60514. kBytes
=======================================================================

   base      :      30000. kBytes
   nonl-proj :       7852. kBytes
   fftplans  :       1147. kBytes
   grid      :       2693. kBytes
   one-center:          3. kBytes
   wavefun   :      18819. kBytes

     INWAV:  cpu time      0.0014: real time      0.0016
 Broyden mixing: mesh for mixing (old mesh)
   NGX = 27   NGY = 37   NGZ = 39
  (NGX  =108   NGY  =144   NGZ  =160)
  gives a total of  38961 points

 initial charge density was supplied:
 charge density of overlapping atoms calculated
 number of electron      72.0000000 magnetization 
 keeping initial charge density in first step


--------------------------------------------------------------------------------------------------------


 Maximum index for augmentation-charges          464 (set IRDMAX)


--------------------------------------------------------------------------------------------------------


 First call to EWALD:  gamma=   0.282
 Maximum number of real-space cells 3x 3x 2
 Maximum number of reciprocal cells 2x 3x 3

    FEWALD:  cpu time      0.0020: real time      0.0020


--------------------------------------- Ionic step        1  -------------------------------------------




--------------------------------------- Iteration      1(   1)  ---------------------------------------


    POTLOK:  cpu time      0.8294: real time      0.8303
    SETDIJ:  cpu time      0.3882: real time      0.3889
    TRIAL :  cpu time      3.1076: real time      3.1117
    CORREC:  cpu time      0.0018: real time      0.0018
    --------------------------------------------
      LOOP:  cpu time      4.3356: real time      4.3413

 eigenvalue-minimisations  :  5408
 total energy-change (2. order) : 0.5933824E+03  (-0.5336457E+04)
 number of electron      72.0000000 magnetization 
 augmentation part       72.0000000 magnetization 

 Free energy of the ion-electron system (eV)
  ---------------------------------------------------
  alpha Z        PSCENC =        60.22020652
  Ewald energy   TEWEN  =     -1241.27643166
  -Hartree energ DENC   =     -1716.25921835
  -exchange      EXHF   =         0.00000000
  -V(xc)+E(xc)   XCENC  =       273.55304756
  PAW double counting   =      2442.54953004    -2441.42623906
  entropy T*S    EENTRO =        -0.00020766
  eigenvalues    EBANDS =      -100.25255107
  atomic energy  EATOM  =      3316.27426183
  ---------------------------------------------------
  free energy    TOTEN  =       593.38239815 eV

  energy without entropy =      593.38260581  energy(sigma->0) =      593.38250198


--------------------------------------------------------------------------------------------------------




--------------------------------------- Iteration      1(   2)  ---------------------------------------


    TRIAL :  cpu time      3.6480: real time      3.6490
    CORREC:  cpu time      0.0004: real time      0.0004
    --------------------------------------------
      LOOP:  cpu time      3.6633: real time      3.6780

 eigenvalue-minimisations  :  7344
 total energy-change (2. order) :-0.6741209E+03  (-0.6418078E+03)
 number of electron      72.0000000 magnetization 
 augmentation part       72.0000000 magnetization 

 Free energy of the ion-electron system (eV)
  ---------------------------------------------------
  alpha Z        PSCENC =        60.22020652
  Ewald energy   TEWEN  =     -1241.27643166
  -Hartree energ DENC   =     -1716.25921835
  -exchange      EXHF   =         0.00000000
  -V(xc)+E(xc)   XCENC  =       273.55304756
  PAW double counting   =      2442.54953004    -2441.42623906
  entropy T*S    EENTRO =        -0.00000000
  eigenvalues    EBANDS =      -774.37362171
  atomic energy  EATOM  =      3316.27426183
  ---------------------------------------------------
  free energy    TOTEN  =       -80.73846484 eV

  energy without entropy =      -80.73846484  energy(sigma->0) =      -80.73846484


--------------------------------------------------------------------------------------------------------




--------------------------------------- Iteration      1(   3)  ---------------------------------------


    TRIAL :  cpu time      3.4925: real time      3.4941
    CORREC:  cpu time      0.0006: real time      0.0006
    --------------------------------------------
      LOOP:  cpu time      3.5223: real time      3.5242

 eigenvalue-minimisations  :  6636
 total energy-change (2. order) :-0.1137696E+03  (-0.1125873E+03)
 number of electron      72.0000000 magnetization 
 augmentation part       72.0000000 magnetization 

 Free energy of the ion-electron system (eV)
  ---------------------------------------------------
  alpha Z        PSCENC =        60.22020652
  Ewald energy   TEWEN  =     -1241.27643166
  -Hartree energ DENC   =     -1716.25921835
  -exchange      EXHF   =         0.00000000
  -V(xc)+E(xc)   XCENC  =       273.55304756
  PAW double counting   =      2442.54953004    -2441.42623906
  entropy T*S    EENTRO =        -0.00000000
  eigenvalues    EBANDS =      -888.14323772
  atomic energy  EATOM  =      3316.27426183
  ---------------------------------------------------
  free energy    TOTEN  =      -194.50808085 eV

  energy without entropy =     -194.50808085  energy(sigma->0) =     -194.50808085


--------------------------------------------------------------------------------------------------------




--------------------------------------- Iteration      1(   4)  ---------------------------------------


    TRIAL :  cpu time      3.6107: real time      3.6121
    CORREC:  cpu time      0.0004: real time      0.0004
    --------------------------------------------
      LOOP:  cpu time      3.6409: real time      3.6428

 eigenvalue-minimisations  :  7200
 total energy-change (2. order) :-0.4365465E+01  (-0.4344614E+01)
 number of electron      72.0000000 magnetization 
 augmentation part       72.0000000 magnetization 

 Free energy of the ion-electron system (eV)
  ---------------------------------------------------
  alpha Z        PSCENC =        60.22020652
  Ewald energy   TEWEN  =     -1241.27643166
  -Hartree energ DENC   =     -1716.25921835
  -exchange      EXHF   =         0.00000000
  -V(xc)+E(xc)   XCENC  =       273.55304756
  PAW double counting   =      2442.54953004    -2441.42623906
  entropy T*S    EENTRO =        -0.00000000
  eigenvalues    EBANDS =      -892.50870255
  atomic energy  EATOM  =      3316.27426183
  ---------------------------------------------------
  free energy    TOTEN  =      -198.87354567 eV

  energy without entropy =     -198.87354567  energy(sigma->0) =     -198.87354567


--------------------------------------------------------------------------------------------------------




--------------------------------------- Iteration      1(   5)  ---------------------------------------


    TRIAL :  cpu time      3.6794: real time      3.6812
    CORREC:  cpu time      0.0005: real time      0.0005
    CHARGE:  cpu time      0.2511: real time      0.2519
    --------------------------------------------
      LOOP:  cpu time      3.9453: real time      3.9626

 eigenvalue-minimisations  :  7392
 total energy-change (2. order) :-0.1324102E+00  (-0.1323213E+00)
 number of electron      72.0000000 magnetization 
 augmentation part        0.2284307 magnetization 

 Free energy of the ion-electron system (eV)
  ---------------------------------------------------
  alpha Z        PSCENC =        60.22020652
  Ewald energy   TEWEN  =     -1241.27643166
  -Hartree energ DENC   =     -1716.25921835
  -exchange      EXHF   =         0.00000000
  -V(xc)+E(xc)   XCENC  =       273.55304756
  PAW double counting   =      2442.54953004    -2441.42623906
  entropy T*S    EENTRO =        -0.00000000
  eigenvalues    EBANDS =      -892.64111271
  atomic energy  EATOM  =      3316.27426183
  ---------------------------------------------------
  free energy    TOTEN  =      -199.00595584 eV

  energy without entropy =     -199.00595584  energy(sigma->0) =     -199.00595584


--------------------------------------------------------------------------------------------------------




--------------------------------------- Iteration      1(   6)  ---------------------------------------


    POTLOK:  cpu time      0.6844: real time      0.6849
    SETDIJ:  cpu time      0.3847: real time      0.3847
    TRIAL :  cpu time      2.5056: real time      2.5075
    CORREC:  cpu time      2.0697: real time      2.0710
    CHARGE:  cpu time      0.2368: real time      0.2368
    --------------------------------------------
      LOOP:  cpu time      5.8962: real time      5.9137

 eigenvalue-minimisations  :     0
 total energy-change (2. order) : 0.4678313E+02  (-0.1029360E+02)
 number of electron      72.0000000 magnetization 
 augmentation part        0.1623392 magnetization 

 Free energy of the ion-electron system (eV)
  ---------------------------------------------------
  alpha Z        PSCENC =        60.22020652
  Ewald energy   TEWEN  =     -1241.27643166
  -Hartree energ DENC   =     -2073.57693960
  -exchange      EXHF   =         0.00000000
  -V(xc)+E(xc)   XCENC  =       309.19727313
  PAW double counting   =     32464.86926405   -32467.21381115
  entropy T*S    EENTRO =        -0.00000000
  eigenvalues    EBANDS =      -520.71664473
  atomic energy  EATOM  =      3316.27426183
  ---------------------------------------------------
  free energy    TOTEN  =      -152.22282161 eV

  energy without entropy =     -152.22282161  energy(sigma->0) =     -152.22282161


--------------------------------------------------------------------------------------------------------




--------------------------------------- Iteration      1(   7)  ---------------------------------------


    POTLOK:  cpu time      0.7228: real time      0.7231
    SETDIJ:  cpu time      0.3477: real time      0.3478
    TRIAL :  cpu time      2.5523: real time      2.5535
    CORREC:  cpu time      2.0585: real time      2.0595
    CHARGE:  cpu time      0.2382: real time      0.2382
    --------------------------------------------
      LOOP:  cpu time      5.9483: real time      5.9513

 eigenvalue-minimisations  :     0
 total energy-change (2. order) :-0.1029775E+02  (-0.1307422E+01)
 number of electron      71.9999999 magnetization 
 augmentation part        0.1360254 magnetization 

 Free energy of the ion-electron system (eV)
  ---------------------------------------------------
  alpha Z        PSCENC =        60.22020652
  Ewald energy   TEWEN  =     -1241.27643166
  -Hartree energ DENC   =     -1915.69836796
  -exchange      EXHF   =         0.00000000
  -V(xc)+E(xc)   XCENC  =       296.51053182
  PAW double counting   =     39438.13400552   -39438.46279117
  entropy T*S    EENTRO =        -0.00000000
  eigenvalues    EBANDS =      -678.22198617
  atomic energy  EATOM  =      3316.27426183
  ---------------------------------------------------
  free energy    TOTEN  =      -162.52057127 eV

  energy without entropy =     -162.52057127  energy(sigma->0) =     -162.52057127


--------------------------------------------------------------------------------------------------------




--------------------------------------- Iteration      1(   8)  ---------------------------------------


    POTLOK:  cpu time      0.6836: real time      0.6838
    SETDIJ:  cpu time      0.3861: real time      0.3861
    TRIAL :  cpu time      2.4878: real time      2.4892
    CORREC:  cpu time      2.0587: real time      2.0596
    CHARGE:  cpu time      0.2374: real time      0.2374
    --------------------------------------------
      LOOP:  cpu time      5.8672: real time      5.8855

 eigenvalue-minimisations  :     0
 total energy-change (2. order) :-0.1314123E+01  (-0.4792085E+00)
 number of electron      71.9999999 magnetization 
 augmentation part        0.1473016 magnetization 

 Free energy of the ion-electron system (eV)
  ---------------------------------------------------
  alpha Z        PSCENC =        60.22020652
  Ewald energy   TEWEN  =     -1241.27643166
  -Hartree energ DENC   =     -1918.89525935
  -exchange      EXHF   =         0.00000000
  -V(xc)+E(xc)   XCENC  =       296.41615724
  PAW double counting   =     40784.96739638   -40785.11311341
  entropy T*S    EENTRO =        -0.00000000
  eigenvalues    EBANDS =      -676.42791203
  atomic energy  EATOM  =      3316.27426183
  ---------------------------------------------------
  free energy    TOTEN  =      -163.83469448 eV

  energy without entropy =     -163.83469448  energy(sigma->0) =     -163.83469448


--------------------------------------------------------------------------------------------------------




--------------------------------------- Iteration      1(   9)  ---------------------------------------


    POTLOK:  cpu time      0.6826: real time      0.6828
    SETDIJ:  cpu time      0.3854: real time      0.3854
    TRIAL :  cpu time      2.4827: real time      2.4839
    CORREC:  cpu time      2.0743: real time      2.0752
    CHARGE:  cpu time      0.2380: real time      0.2380
    --------------------------------------------
      LOOP:  cpu time      5.8760: real time      5.8940

 eigenvalue-minimisations  :     0
 total energy-change (2. order) :-0.4788730E+00  (-0.1496796E+00)
 number of electron      72.0000000 magnetization 
 augmentation part        0.1554227 magnetization 

 Free energy of the ion-electron system (eV)
  ---------------------------------------------------
  alpha Z        PSCENC =        60.22020652
  Ewald energy   TEWEN  =     -1241.27643166
  -Hartree energ DENC   =     -1913.69535955
  -exchange      EXHF   =         0.00000000
  -V(xc)+E(xc)   XCENC  =       296.10284736
  PAW double counting   =     42387.16567054   -42387.25740193
  entropy T*S    EENTRO =        -0.00000000
  eigenvalues    EBANDS =      -681.84736060
  atomic energy  EATOM  =      3316.27426183
  ---------------------------------------------------
  free energy    TOTEN  =      -164.31356749 eV

  energy without entropy =     -164.31356749  energy(sigma->0) =     -164.31356749


--------------------------------------------------------------------------------------------------------




--------------------------------------- Iteration      1(  10)  ---------------------------------------


    POTLOK:  cpu time      0.6828: real time      0.6831
    SETDIJ:  cpu time      0.3899: real time      0.3899
    TRIAL :  cpu time      2.5105: real time      2.5121
    CORREC:  cpu time      2.0880: real time      2.0889
    CHARGE:  cpu time      0.2369: real time      0.2369
    --------------------------------------------
      LOOP:  cpu time      5.9377: real time      5.9407

 eigenvalue-minimisations  :     0
 total energy-change (2. order) :-0.1494635E+00  (-0.4342822E-01)
 number of electron      72.0000000 magnetization 
 augmentation part        0.1572980 magnetization 

 Free energy of the ion-electron system (eV)
  ---------------------------------------------------
  alpha Z        PSCENC =        60.22020652
  Ewald energy   TEWEN  =     -1241.27643166
  -Hartree energ DENC   =     -1909.05272570
  -exchange      EXHF   =         0.00000000
  -V(xc)+E(xc)   XCENC  =       295.83496716
  PAW double counting   =     42250.65381304   -42250.76072239
  entropy T*S    EENTRO =        -0.00000000
  eigenvalues    EBANDS =      -686.35639982
  atomic energy  EATOM  =      3316.27426183
  ---------------------------------------------------
  free energy    TOTEN  =      -164.46303102 eV

  energy without entropy =     -164.46303102  energy(sigma->0) =     -164.46303102


--------------------------------------------------------------------------------------------------------




--------------------------------------- Iteration      1(  11)  ---------------------------------------


    POTLOK:  cpu time      0.6836: real time      0.6838
    SETDIJ:  cpu time      0.3850: real time      0.3850
    TRIAL :  cpu time      2.4794: real time      2.4805
    CORREC:  cpu time      2.0692: real time      2.0701
    CHARGE:  cpu time      0.2368: real time      0.2368
    --------------------------------------------
      LOOP:  cpu time      5.8675: real time      5.8853

 eigenvalue-minimisations  :     0
 total energy-change (2. order) :-0.4336161E-01  (-0.1107177E-01)
 number of electron      72.0000000 magnetization 
 augmentation part        0.1563830 magnetization 

 Free energy of the ion-electron system (eV)
  ---------------------------------------------------
  alpha Z        PSCENC =        60.22020652
  Ewald energy   TEWEN  =     -1241.27643166
  -Hartree energ DENC   =     -1908.18709375
  -exchange      EXHF   =         0.00000000
  -V(xc)+E(xc)   XCENC  =       295.75838021
  PAW double counting   =     41764.22572003   -41764.36340177
  entropy T*S    EENTRO =        -0.00000000
  eigenvalues    EBANDS =      -687.15803404
  atomic energy  EATOM  =      3316.27426183
  ---------------------------------------------------
  free energy    TOTEN  =      -164.50639263 eV

  energy without entropy =     -164.50639263  energy(sigma->0) =     -164.50639263


--------------------------------------------------------------------------------------------------------




--------------------------------------- Iteration      1(  12)  ---------------------------------------


    POTLOK:  cpu time      0.6831: real time      0.6835
    SETDIJ:  cpu time      0.3848: real time      0.3848
    TRIAL :  cpu time      2.4775: real time      2.4782
    CORREC:  cpu time      2.0585: real time      2.0594
    CHARGE:  cpu time      0.2362: real time      0.2365
    --------------------------------------------
      LOOP:  cpu time      5.8539: real time      5.8712

 eigenvalue-minimisations  :     0
 total energy-change (2. order) :-0.1108283E-01  (-0.2747051E-02)
 number of electron      72.0000000 magnetization 
 augmentation part        0.1557594 magnetization 

 Free energy of the ion-electron system (eV)
  ---------------------------------------------------
  alpha Z        PSCENC =        60.22020652
  Ewald energy   TEWEN  =     -1241.27643166
  -Hartree energ DENC   =     -1907.55051680
  -exchange      EXHF   =         0.00000000
  -V(xc)+E(xc)   XCENC  =       295.69362235
  PAW double counting   =     41568.16586792   -41568.30449133
  entropy T*S    EENTRO =        -0.00000000
  eigenvalues    EBANDS =      -687.73999428
  atomic energy  EATOM  =      3316.27426183
  ---------------------------------------------------
  free energy    TOTEN  =      -164.51747545 eV

  energy without entropy =     -164.51747545  energy(sigma->0) =     -164.51747545


--------------------------------------------------------------------------------------------------------




--------------------------------------- Iteration      1(  13)  ---------------------------------------


    POTLOK:  cpu time      0.6842: real time      0.6842
    SETDIJ:  cpu time      0.3857: real time      0.3861
    TRIAL :  cpu time      2.5714: real time      2.5724
    CORREC:  cpu time      2.0571: real time      2.0581
    CHARGE:  cpu time      0.2360: real time      0.2363
    --------------------------------------------
      LOOP:  cpu time      5.9475: real time      5.9662

 eigenvalue-minimisations  :     0
 total energy-change (2. order) :-0.2752508E-02  (-0.7124252E-03)
 number of electron      72.0000000 magnetization 
 augmentation part        0.1556642 magnetization 

 Free energy of the ion-electron system (eV)
  ---------------------------------------------------
  alpha Z        PSCENC =        60.22020652
  Ewald energy   TEWEN  =     -1241.27643166
  -Hartree energ DENC   =     -1907.28610010
  -exchange      EXHF   =         0.00000000
  -V(xc)+E(xc)   XCENC  =       295.66642461
  PAW double counting   =     41452.48819308   -41452.62426178
  entropy T*S    EENTRO =        -0.00000000
  eigenvalues    EBANDS =      -687.98252045
  atomic energy  EATOM  =      3316.27426183
  ---------------------------------------------------
  free energy    TOTEN  =      -164.52022796 eV

  energy without entropy =     -164.52022796  energy(sigma->0) =     -164.52022796


--------------------------------------------------------------------------------------------------------




--------------------------------------- Iteration      1(  14)  ---------------------------------------


    POTLOK:  cpu time      0.6829: real time      0.6830
    SETDIJ:  cpu time      0.3837: real time      0.3842
    TRIAL :  cpu time      2.4814: real time      2.4822
    CORREC:  cpu time      2.0562: real time      2.0574
    CHARGE:  cpu time      0.2362: real time      0.2365
    --------------------------------------------
      LOOP:  cpu time      5.8535: real time      5.8720

 eigenvalue-minimisations  :     0
 total energy-change (2. order) :-0.7123355E-03  (-0.2063627E-03)
 number of electron      72.0000000 magnetization 
 augmentation part        0.1556806 magnetization 

 Free energy of the ion-electron system (eV)
  ---------------------------------------------------
  alpha Z        PSCENC =        60.22020652
  Ewald energy   TEWEN  =     -1241.27643166
  -Hartree energ DENC   =     -1907.24896465
  -exchange      EXHF   =         0.00000000
  -V(xc)+E(xc)   XCENC  =       295.65918465
  PAW double counting   =     41364.89169975   -41365.02763980
  entropy T*S    EENTRO =        -0.00000000
  eigenvalues    EBANDS =      -688.01325692
  atomic energy  EATOM  =      3316.27426183
  ---------------------------------------------------
  free energy    TOTEN  =      -164.52094030 eV

  energy without entropy =     -164.52094030  energy(sigma->0) =     -164.52094030


--------------------------------------------------------------------------------------------------------




--------------------------------------- Iteration      1(  15)  ---------------------------------------


    POTLOK:  cpu time      0.6835: real time      0.6835
    SETDIJ:  cpu time      0.3883: real time      0.3887
    TRIAL :  cpu time      2.4923: real time      2.4933
    CORREC:  cpu time      2.0637: real time      2.0647
    CHARGE:  cpu time      0.2371: real time      0.2371
    --------------------------------------------
      LOOP:  cpu time      5.8793: real time      5.8965

 eigenvalue-minimisations  :     0
 total energy-change (2. order) :-0.2074184E-03  (-0.6503261E-04)
 number of electron      72.0000000 magnetization 
 augmentation part        0.1557113 magnetization 

 Free energy of the ion-electron system (eV)
  ---------------------------------------------------
  alpha Z        PSCENC =        60.22020652
  Ewald energy   TEWEN  =     -1241.27643166
  -Hartree energ DENC   =     -1907.31715456
  -exchange      EXHF   =         0.00000000
  -V(xc)+E(xc)   XCENC  =       295.66354237
  PAW double counting   =     41302.25623751   -41302.39298877
  entropy T*S    EENTRO =        -0.00000000
  eigenvalues    EBANDS =      -687.94882095
  atomic energy  EATOM  =      3316.27426183
  ---------------------------------------------------
  free energy    TOTEN  =      -164.52114771 eV

  energy without entropy =     -164.52114771  energy(sigma->0) =     -164.52114771


--------------------------------------------------------------------------------------------------------




--------------------------------------- Iteration      1(  16)  ---------------------------------------


    POTLOK:  cpu time      0.6841: real time      0.6843
    SETDIJ:  cpu time      0.3843: real time      0.3846
    TRIAL :  cpu time      2.5777: real time      2.5788
    CORREC:  cpu time      2.0628: real time      2.0637
    CHARGE:  cpu time      0.2395: real time      0.2395
    --------------------------------------------
      LOOP:  cpu time      5.9720: real time      5.9793

 eigenvalue-minimisations  :     0
 total energy-change (2. order) :-0.6550337E-04  (-0.2066193E-04)
 number of electron      72.0000000 magnetization 
 augmentation part        0.1557068 magnetization 

 Free energy of the ion-electron system (eV)
  ---------------------------------------------------
  alpha Z        PSCENC =        60.22020652
  Ewald energy   TEWEN  =     -1241.27643166
  -Hartree energ DENC   =     -1907.33135619
  -exchange      EXHF   =         0.00000000
  -V(xc)+E(xc)   XCENC  =       295.66509467
  PAW double counting   =     41279.77801400   -41279.91484127
  entropy T*S    EENTRO =        -0.00000000
  eigenvalues    EBANDS =      -687.93616112
  atomic energy  EATOM  =      3316.27426183
  ---------------------------------------------------
  free energy    TOTEN  =      -164.52121322 eV

  energy without entropy =     -164.52121322  energy(sigma->0) =     -164.52121322


--------------------------------------------------------------------------------------------------------




--------------------------------------- Iteration      1(  17)  ---------------------------------------


    POTLOK:  cpu time      0.6832: real time      0.6836
    SETDIJ:  cpu time      0.3864: real time      0.3866
    TRIAL :  cpu time      2.5222: real time      2.5233
    CORREC:  cpu time      2.0577: real time      2.0587
    CHARGE:  cpu time      0.2364: real time      0.2364
    --------------------------------------------
      LOOP:  cpu time      5.8986: real time      5.9186

 eigenvalue-minimisations  :     0
 total energy-change (2. order) :-0.2108358E-04  (-0.5488731E-05)
 number of electron      72.0000000 magnetization 
 augmentation part        0.1556898 magnetization 

 Free energy of the ion-electron system (eV)
  ---------------------------------------------------
  alpha Z        PSCENC =        60.22020652
  Ewald energy   TEWEN  =     -1241.27643166
  -Hartree energ DENC   =     -1907.34812274
  -exchange      EXHF   =         0.00000000
  -V(xc)+E(xc)   XCENC  =       295.66624500
  PAW double counting   =     41284.90860310   -41285.04521674
  entropy T*S    EENTRO =        -0.00000000
  eigenvalues    EBANDS =      -687.92077961
  atomic energy  EATOM  =      3316.27426183
  ---------------------------------------------------
  free energy    TOTEN  =      -164.52123430 eV

  energy without entropy =     -164.52123430  energy(sigma->0) =     -164.52123430


--------------------------------------------------------------------------------------------------------




--------------------------------------- Iteration      1(  18)  ---------------------------------------


    POTLOK:  cpu time      0.6828: real time      0.6831
    SETDIJ:  cpu time      0.3870: real time      0.3870
    TRIAL :  cpu time      2.4766: real time      2.4780
    CORREC:  cpu time      2.0572: real time      2.0582
    CHARGE:  cpu time      0.2364: real time      0.2364
    --------------------------------------------
      LOOP:  cpu time      5.8687: real time      5.8716

 eigenvalue-minimisations  :     0
 total energy-change (2. order) :-0.5738650E-05  (-0.1418213E-05)
 number of electron      72.0000000 magnetization 
 augmentation part        0.1556801 magnetization 

 Free energy of the ion-electron system (eV)
  ---------------------------------------------------
  alpha Z        PSCENC =        60.22020652
  Ewald energy   TEWEN  =     -1241.27643166
  -Hartree energ DENC   =     -1907.36157231
  -exchange      EXHF   =         0.00000000
  -V(xc)+E(xc)   XCENC  =       295.66736579
[...]
     31      -3.2164      2.00000
     32      -3.0010      2.00000
     33      -2.8585      2.00000
     34      -2.6456      2.00000
     35      -2.4317      2.00000
     36      -2.2763      2.00000
     37       4.6129      0.00000
     38       4.7495      0.00000
     39       5.1559      0.00000
     40       5.5987      0.00000
     41       5.8402      0.00000
     42       6.1075      0.00000
     43       6.3481      0.00000
     44       7.0134      0.00000
     45       7.1417      0.00000
     46       7.3029      0.00000
     47       7.8972      0.00000
     48       8.0725      0.00000
     49       8.1409      0.00000
     50       8.4595      0.00000
     51       9.1175      0.00000
     52       9.3995      0.00000

 k-point    48 :      -0.1667    0.2500    0.5000
  band No.  band energies     occupation 
      1     -24.6144      2.00000
      2     -24.5899      2.00000
      3     -22.2508      2.00000
      4     -22.1905      2.00000
      5     -19.2844      2.00000
      6     -19.2179      2.00000
      7     -15.4244      2.00000
      8     -15.3555      2.00000
      9     -12.3436      2.00000
     10     -12.0875      2.00000
     11     -10.7313      2.00000
     12     -10.4463      2.00000
     13      -9.8669      2.00000
     14      -9.6541      2.00000
     15      -8.8726      2.00000
     16      -8.2281      2.00000
     17      -8.1001      2.00000
     18      -7.8884      2.00000
     19      -7.3063      2.00000
     20      -6.5528      2.00000
     21      -6.4189      2.00000
     22      -6.3937      2.00000
     23      -5.7727      2.00000
     24      -5.6856      2.00000
     25      -5.3687      2.00000
     26      -5.1677      2.00000
     27      -4.6385      2.00000
     28      -4.5215      2.00000
     29      -4.4511      2.00000
     30      -4.2532      2.00000
     31      -3.2457      2.00000
     32      -2.8739      2.00000
     33      -2.7560      2.00000
     34      -2.6022      2.00000
     35      -2.3558      2.00000
     36      -2.2406      2.00000
     37       4.3441      0.00000
     38       4.6673      0.00000
     39       5.0496      0.00000
     40       5.2029      0.00000
     41       5.5166      0.00000
     42       6.1696      0.00000
     43       6.6543      0.00000
     44       6.8743      0.00000
     45       7.2585      0.00000
     46       7.6087      0.00000
     47       7.9565      0.00000
     48       8.3968      0.00000
     49       8.5192      0.00000
     50       8.6215      0.00000
     51       8.7713      0.00000
     52       9.2951      0.00000

 k-point    49 :       0.0000    0.5000    0.5000
  band No.  band energies     occupation 
      1     -24.6141      2.00000
      2     -24.6008      2.00000
      3     -22.2597      2.00000
      4     -22.1884      2.00000
      5     -19.2264      2.00000
      6     -19.2023      2.00000
      7     -15.4134      2.00000
      8     -15.3667      2.00000
      9     -12.2979      2.00000
     10     -12.2350      2.00000
     11     -10.7214      2.00000
     12     -10.5663      2.00000
     13      -9.8660      2.00000
     14      -9.7695      2.00000
     15      -8.8791      2.00000
     16      -8.2620      2.00000
     17      -8.0436      2.00000
     18      -7.9814      2.00000
     19      -7.2247      2.00000
     20      -6.4108      2.00000
     21      -6.3235      2.00000
     22      -6.3058      2.00000
     23      -5.7995      2.00000
     24      -5.5653      2.00000
     25      -5.2539      2.00000
     26      -5.1938      2.00000
     27      -4.7232      2.00000
     28      -4.6441      2.00000
     29      -4.3876      2.00000
     30      -4.3638      2.00000
     31      -3.2103      2.00000
     32      -2.7924      2.00000
     33      -2.6436      2.00000
     34      -2.6313      2.00000
     35      -2.2886      2.00000
     36      -2.2466      2.00000
     37       4.2697      0.00000
     38       4.6247      0.00000
     39       4.9926      0.00000
     40       5.1829      0.00000
     41       5.4318      0.00000
     42       5.5533      0.00000
     43       6.7517      0.00000
     44       6.8784      0.00000
     45       7.6494      0.00000
     46       7.7521      0.00000
     47       7.9922      0.00000
     48       8.2354      0.00000
     49       8.7680      0.00000
     50       8.9789      0.00000
     51       9.0872      0.00000
     52       9.3054      0.00000

 k-point    50 :       0.1667    0.5000    0.5000
  band No.  band energies     occupation 
      1     -24.6092      2.00000
      2     -24.5947      2.00000
      3     -22.2549      2.00000
      4     -22.1880      2.00000
      5     -19.2742      2.00000
      6     -19.2266      2.00000
      7     -15.4142      2.00000
      8     -15.3667      2.00000
      9     -12.2660      2.00000
     10     -12.1822      2.00000
     11     -10.6469      2.00000
     12     -10.5086      2.00000
     13      -9.7803      2.00000
     14      -9.7314      2.00000
     15      -8.9016      2.00000
     16      -8.2567      2.00000
     17      -8.0666      2.00000
     18      -7.9206      2.00000
     19      -7.3317      2.00000
     20      -6.5339      2.00000
     21      -6.3621      2.00000
     22      -6.2876      2.00000
     23      -5.8562      2.00000
     24      -5.6417      2.00000
     25      -5.3468      2.00000
     26      -5.1408      2.00000
     27      -4.7099      2.00000
     28      -4.6428      2.00000
     29      -4.3670      2.00000
     30      -4.3358      2.00000
     31      -3.2148      2.00000
     32      -2.8620      2.00000
     33      -2.7594      2.00000
     34      -2.5901      2.00000
     35      -2.3106      2.00000
     36      -2.2651      2.00000
     37       4.3781      0.00000
     38       4.6788      0.00000
     39       4.9784      0.00000
     40       5.3007      0.00000
     41       5.6413      0.00000
     42       5.7055      0.00000
     43       6.6470      0.00000
     44       6.8145      0.00000
     45       7.3843      0.00000
     46       7.7486      0.00000
     47       7.8960      0.00000
     48       8.2060      0.00000
     49       8.6445      0.00000
     50       8.8426      0.00000
     51       9.0432      0.00000
     52       9.3656      0.00000

 k-point    51 :       0.3333    0.5000    0.5000
  band No.  band energies     occupation 
      1     -24.5990      2.00000
      2     -24.5826      2.00000
      3     -22.2446      2.00000
      4     -22.1875      2.00000
      5     -19.3564      2.00000
      6     -19.2863      2.00000
      7     -15.4101      2.00000
      8     -15.3722      2.00000
      9     -12.1857      2.00000
     10     -12.1148      2.00000
     11     -10.4993      2.00000
     12     -10.4168      2.00000
     13      -9.6152      2.00000
     14      -9.5385      2.00000
     15      -8.8606      2.00000
     16      -8.1965      2.00000
     17      -8.0753      2.00000
     18      -7.8648      2.00000
     19      -7.6532      2.00000
     20      -6.9210      2.00000
     21      -6.4013      2.00000
     22      -6.2995      2.00000
     23      -5.9537      2.00000
     24      -5.7951      2.00000
     25      -5.3949      2.00000
     26      -5.1284      2.00000
     27      -4.6834      2.00000
     28      -4.6438      2.00000
     29      -4.3406      2.00000
     30      -4.2541      2.00000
     31      -3.1991      2.00000
     32      -2.9652      2.00000
     33      -2.8645      2.00000
     34      -2.6327      2.00000
     35      -2.3610      2.00000
     36      -2.3235      2.00000
     37       4.5580      0.00000
     38       4.7606      0.00000
     39       5.0977      0.00000
     40       5.5899      0.00000
     41       5.9415      0.00000
     42       6.1733      0.00000
     43       6.4667      0.00000
     44       6.6781      0.00000
     45       7.0787      0.00000
     46       7.2667      0.00000
     47       7.6488      0.00000
     48       8.1988      0.00000
     49       8.4769      0.00000
     50       8.7541      0.00000
     51       8.8954      0.00000
     52       9.2590      0.00000

 k-point    52 :       0.5000    0.5000    0.5000
  band No.  band energies     occupation 
      1     -24.5937      2.00000
      2     -24.5767      2.00000
      3     -22.2390      2.00000
      4     -22.1876      2.00000
      5     -19.3948      2.00000
      6     -19.3177      2.00000
      7     -15.4036      2.00000
      8     -15.3792      2.00000
      9     -12.1212      2.00000
     10     -12.1155      2.00000
     11     -10.4281      2.00000
     12     -10.3868      2.00000
     13      -9.5032      2.00000
     14      -9.4416      2.00000
     15      -8.6187      2.00000
     16      -8.2430      2.00000
     17      -8.1078      2.00000
     18      -7.8720      2.00000
     19      -7.8028      2.00000
     20      -7.2476      2.00000
     21      -6.4160      2.00000
     22      -6.3124      2.00000
     23      -5.9908      2.00000
     24      -5.8688      2.00000
     25      -5.3885      2.00000
     26      -5.1378      2.00000
     27      -4.6580      2.00000
     28      -4.6559      2.00000
     29      -4.3287      2.00000
     30      -4.2078      2.00000
     31      -3.1637      2.00000
     32      -3.0323      2.00000
     33      -2.8939      2.00000
     34      -2.6588      2.00000
     35      -2.4176      2.00000
     36      -2.3378      2.00000
     37       4.6103      0.00000
     38       4.8206      0.00000
     39       5.2351      0.00000
     40       5.7582      0.00000
     41       5.9998      0.00000
     42       6.3181      0.00000
     43       6.7084      0.00000
     44       6.7119      0.00000
     45       6.8438      0.00000
     46       6.9507      0.00000
     47       7.4819      0.00000
     48       8.0218      0.00000
     49       8.4492      0.00000
     50       8.7242      0.00000
     51       8.8391      0.00000
     52       9.5456      0.00000


--------------------------------------------------------------------------------------------------------


 soft charge-density along one line, spin component           1
         0         1         2         3         4         5         6         7         8         9
 total charge-density along one line

 pseudopotential strength for first ion, spin component:           1
 12.475  20.986  -0.000   0.000  -0.001  -0.000   0.000  -0.001
 20.986  35.303  -0.000   0.000  -0.001  -0.001   0.000  -0.002
 -0.000  -0.000  -3.177  -0.002  -0.002  -5.687  -0.003  -0.003
  0.000   0.000  -0.002  -3.175  -0.001  -0.003  -5.683  -0.002
 -0.001  -0.001  -0.002  -0.001  -3.175  -0.003  -0.002  -5.684
 -0.000  -0.001  -5.687  -0.003  -0.003 -10.157  -0.005  -0.004
  0.000   0.000  -0.003  -5.683  -0.002  -0.005 -10.151  -0.003
 -0.001  -0.002  -0.003  -0.002  -5.684  -0.004  -0.003 -10.151
 total augmentation occupancy for first ion, spin component:           1
  9.261  -3.399  -0.073  -0.035  -0.071   0.053   0.025   0.043
 -3.399   1.259   0.065   0.030   0.054  -0.038  -0.019  -0.028
 -0.073   0.065   6.606   0.065   0.063  -2.234  -0.048  -0.044
 -0.035   0.030   0.065   6.511   0.037  -0.048  -2.167  -0.027
 -0.071   0.054   0.063   0.037   6.515  -0.044  -0.027  -2.170
  0.053  -0.038  -2.234  -0.048  -0.044   0.761   0.026   0.024
  0.025  -0.019  -0.048  -2.167  -0.027   0.026   0.724   0.015
  0.043  -0.028  -0.044  -0.027  -2.170   0.024   0.015   0.725


------------------------ aborting loop because EDIFF is reached ----------------------------------------


    FORLOC:  cpu time      0.0069: real time      0.0069
    FORNL :  cpu time      0.3855: real time      0.3856
    FORCOR:  cpu time      0.9960: real time      0.9966
    OFIELD:  cpu time      0.0018: real time      0.0018

 VOLUME and BASIS-vectors are now :
 -----------------------------------------------------------------------------
  energy-cutoff  :     1000.00
  volume of cell :      248.77
      direct lattice vectors                 reciprocal lattice vectors
     5.051000000  0.000000000  0.000000000     0.197980598 -0.046983007  0.045053615
     1.618830000  6.821550000  0.000000000    -0.000000000  0.146594249  0.021882239
    -1.898810000 -1.077750000  7.220100000     0.000000000  0.000000000  0.138502237

  length of vectors
     5.051000000  7.011002423  7.543001292     0.208407169  0.148218441  0.138502237


 FORCES acting on ions:
    Electron-Ion                     Ewald-Force                    Non-Local-Force
 -----------------------------------------------------------------------------------------------
   -.901E+01 -.881E+02 -.548E+02   0.100E+02 0.892E+02 0.552E+02   -.104E+01 -.117E+01 -.417E+00
   0.901E+01 0.881E+02 0.548E+02   -.100E+02 -.892E+02 -.552E+02   0.104E+01 0.117E+01 0.415E+00
   0.104E+03 -.610E+02 -.375E+02   -.114E+03 0.679E+02 0.389E+02   0.102E+02 -.703E+01 -.140E+01
   -.104E+03 0.610E+02 0.375E+02   0.114E+03 -.679E+02 -.389E+02   -.102E+02 0.703E+01 0.140E+01
   -.411E+02 0.286E+02 -.170E+02   0.397E+02 -.326E+02 0.143E+02   0.126E+01 0.413E+01 0.277E+01
   0.410E+02 -.286E+02 0.170E+02   -.397E+02 0.326E+02 -.143E+02   -.126E+01 -.413E+01 -.277E+01
   -.116E+03 0.105E+03 -.380E+02   0.120E+03 -.111E+03 0.426E+02   -.470E+01 0.666E+01 -.466E+01
   0.116E+03 -.105E+03 0.380E+02   -.120E+03 0.111E+03 -.426E+02   0.470E+01 -.666E+01 0.466E+01
   -.148E+03 -.926E+02 -.106E+03   0.189E+03 0.110E+03 0.121E+03   -.404E+02 -.173E+02 -.149E+02
   0.148E+03 0.926E+02 0.106E+03   -.189E+03 -.110E+03 -.121E+03   0.404E+02 0.173E+02 0.149E+02
   0.201E+03 0.715E+02 0.522E+02   -.246E+03 -.830E+02 -.666E+02   0.458E+02 0.116E+02 0.147E+02
   -.201E+03 -.715E+02 -.522E+02   0.246E+03 0.830E+02 0.666E+02   -.458E+02 -.116E+02 -.147E+02
   0.373E+02 -.364E+02 -.184E+02   -.413E+02 0.398E+02 0.196E+02   0.420E+01 -.360E+01 -.123E+01
   -.373E+02 0.364E+02 0.184E+02   0.413E+02 -.398E+02 -.196E+02   -.420E+01 0.360E+01 0.123E+01
   -.283E+02 -.527E+01 -.360E+02   0.310E+02 0.415E+01 0.406E+02   -.276E+01 0.116E+01 -.482E+01
   0.283E+02 0.528E+01 0.360E+02   -.310E+02 -.415E+01 -.406E+02   0.276E+01 -.116E+01 0.482E+01
   -.316E+02 -.277E+02 0.108E+02   0.351E+02 0.303E+02 -.141E+02   -.362E+01 -.273E+01 0.346E+01
   0.316E+02 0.277E+02 -.108E+02   -.351E+02 -.303E+02 0.141E+02   0.362E+01 0.273E+01 -.346E+01
   0.486E+02 0.143E+02 -.378E+02   -.523E+02 -.170E+02 0.412E+02   0.381E+01 0.276E+01 -.352E+01
   -.486E+02 -.143E+02 0.378E+02   0.523E+02 0.170E+02 -.412E+02   -.381E+01 -.276E+01 0.352E+01
   0.340E+02 -.188E+02 0.317E+02   -.367E+02 0.199E+02 -.366E+02   0.285E+01 -.118E+01 0.512E+01
   -.340E+02 0.188E+02 -.317E+02   0.367E+02 -.199E+02 0.366E+02   -.285E+01 0.118E+01 -.512E+01
   -.522E+02 -.127E+02 -.214E+02   0.588E+02 0.153E+02 0.226E+02   -.694E+01 -.262E+01 -.121E+01
   0.522E+02 0.127E+02 0.214E+02   -.588E+02 -.153E+02 -.226E+02   0.694E+01 0.261E+01 0.121E+01
   -.587E+01 0.481E+02 0.197E+02   0.517E+01 -.541E+02 -.235E+02   0.690E+00 0.618E+01 0.396E+01
   0.587E+01 -.481E+02 -.196E+02   -.518E+01 0.541E+02 0.235E+02   -.689E+00 -.618E+01 -.396E+01
 -----------------------------------------------------------------------------------------------
   0.126E-01 -.110E-02 -.491E-02   -.124E-13 0.995E-13 0.604E-13   -.129E-01 0.885E-03 0.484E-02


 POSITION                                       TOTAL-FORCE (eV/Angst)
 -----------------------------------------------------------------------------------
      4.94844      5.03869      2.64154        -0.014331     -0.053093     -0.030100
     -0.17729      0.70496      4.57866         0.014242      0.051746      0.029392
      4.39308      3.78968      1.99505         0.081992     -0.061156      0.005641
      0.37806      1.95399      5.22510        -0.082350      0.061692     -0.004533
      0.20252      1.74281      1.10683        -0.219066      0.063257      0.008590
      4.56847      4.00089      6.11328         0.227417     -0.069145     -0.009918
      1.28874      0.96879      0.95087        -0.202734      0.186982     -0.061091
      3.48237      4.77480      6.26928         0.197298     -0.178665      0.064887
      0.48145      2.91027      1.73336        -0.415251     -0.394788     -0.257819
      4.28966      2.83336      5.48678         0.413013      0.395271      0.257867
      4.10717      1.42487      0.74293         0.816964      0.229797      0.273307
      0.66392      4.31883      6.47703        -0.818539     -0.227859     -0.272363
      4.12460      5.72648      2.87648         0.178883     -0.164410     -0.061729
      0.64658      0.01720      4.34376        -0.178741      0.164197      0.061634
      0.42570      4.80066      3.57369        -0.110236      0.039210     -0.167832
      4.34549      0.94291      3.64645         0.110254     -0.039087      0.168248
      5.64429      5.55594      1.96830        -0.139902     -0.105697      0.123905
     -0.87312      0.18765      5.25189         0.140120      0.106160     -0.124115
      3.69175      3.26461      2.65942         0.181652      0.096750     -0.147755
      1.07940      2.47903      4.56073        -0.181294     -0.096388      0.147407
      3.88355      4.00550      1.04758         0.127607     -0.050978      0.177224
      0.88758      1.73816      6.17258        -0.127614      0.051215     -0.177427
      2.22576      1.33808      1.11945        -0.277065     -0.080904     -0.046500
      2.54533      4.40553      6.10072         0.277737      0.080719      0.046755
      1.18581      0.11386      0.39366        -0.007352      0.233142      0.137027
      3.58527      5.62994      6.82644         0.007295     -0.237969     -0.140702
 -----------------------------------------------------------------------------------
    total drift:                               -0.000317     -0.000215     -0.000071


--------------------------------------------------------------------------------------------------------



  FREE ENERGIE OF THE ION-ELECTRON SYSTEM (eV)
  ---------------------------------------------------
  free  energy   TOTEN  =      -164.52124234 eV

  energy  without entropy=     -164.52124234  energy(sigma->0) =     -164.52124234



--------------------------------------------------------------------------------------------------------


    POTLOK:  cpu time      1.1439: real time      1.1442


--------------------------------------------------------------------------------------------------------


 stress matrix after NEB project (eV)
      0.00000      0.00000      0.00000
      0.00000      0.00000      0.00000
      0.00000      0.00000      0.00000
  FORCES: max atom, RMS     0.892248    0.368100
  FORCE total and by dimension    1.876951    0.818539
  Stress total and by dimension    0.000000    0.000000
     LOOP+:  cpu time    126.3841: real time    126.6725
    4ORBIT:  cpu time      0.0000: real time      0.0000

 total amount of memory used by VASP MPI-rank0    60514. kBytes
=======================================================================

   base      :      30000. kBytes
   nonl-proj :       7852. kBytes
   fftplans  :       1147. kBytes
   grid      :       2693. kBytes
   one-center:          3. kBytes
   wavefun   :      18819. kBytes

  
  
 General timing and accounting informations for this job:
 ========================================================
  
                  Total CPU time used (sec):      139.566
                            User time (sec):      137.371
                          System time (sec):        2.195
                         Elapsed time (sec):      143.388
  
                   Maximum memory used (kb):      263072.
                   Average memory used (kb):          N/A
  
                          Minor page faults:        71694
                          Major page faults:          842
                 Voluntary context switches:         3092
