 vasp.6.4.1 05Apr23 (build Jun  6 2023 14:36:51) complex                         
 executed on        HPECrayEX_GCC date 2024.08.20  16:55:05
 running  128 mpi-ranks, with    1 threads/rank, on    1 nodes
 distrk:  each k-point on  128 cores,    1 groups
 distr:  one band on NCORE=  32 cores,    4 groups


--------------------------------------------------------------------------------------------------------


 INCAR:
   ALGO = Conjugate
   NPAR = 4
   ISMEAR = 0
   SIGMA = 0.01
   PREC = Accurate
   EDIFF = 1E-7
   ENCUT = 1000
   ISIF = 0
   IVDW = 2
   SYMPREC = 1E-7
   LWAVE = .FALSE.
   LCHARGE = .FALSE.

 POTCAR:    PAW_PBE C_h 06Feb2004                 
 POTCAR:    PAW_PBE N_h 06Feb2004                 
 POTCAR:    PAW_PBE O_h 06Feb2004                 
 POTCAR:    PAW_PBE H_h 06Feb2004                 
 POTCAR:    PAW_PBE C_h 06Feb2004                 
   VRHFIN =C: s2p2                                                                                  
   LEXCH  = PE                                                                                      
   EATOM  =   147.1560 eV,   10.8157 Ry                                                             
                                                                                                    
   TITEL  = PAW_PBE C_h 06Feb2004                                                                   
   LULTRA =        F    use ultrasoft PP ?                                                          
   IUNSCR =        1    unscreen: 0-lin 1-nonlin 2-no                                               
   RPACOR =    0.800    partial core radius                                                         
   POMASS =   12.011; ZVAL   =    4.000    mass and valenz                                          
   RCORE  =    1.100    outmost cutoff radius                                                       
   RWIGS  =    1.630; RWIGS  =    0.863    wigner-seitz radius (au A)                               
   ENMAX  =  700.000; ENMIN  =  500.000 eV                                                          
   ICORE  =        2    local potential                                                             
   LCOR   =        T    correct aug charges                                                         
   LPAW   =        T    paw PP                                                                      
   EAUG   =  946.768                                                                                
   DEXC   =    0.000                                                                                
   RMAX   =    1.128    core radius for proj-oper                                                   
   RAUG   =    1.300    factor for augmentation sphere                                              
   RDEP   =    1.162    radius for radial grids                                                     
   RDEPT  =    1.088    core radius for aug-charge                                                  
                                                                                                    
   Atomic configuration                                                                             
    4 entries                                                                                       
     n  l   j            E        occ.                                                              
     1  0  0.50      -273.3789   2.0000                                                             
     2  0  0.50       -13.7508   2.0000                                                             
     2  1  0.50        -5.2854   2.0000                                                             
     3  2  1.50        -5.4423   0.0000                                                             
   Description                                                                                      
     l       E           TYP  RCUT    TYP  RCUT                                                     
     0    -13.7508458     23  1.100                                                                 
     0     -8.2022199     23  1.100                                                                 
     1     -5.2854383     23  1.100                                                                 
     1      1.1560700     23  1.100                                                                 
     2     -5.4423304      7  1.100                                                                 
  local pseudopotential read in
  partial core-charges read in
  partial kinetic energy density read in
  atomic valenz-charges read in
  non local Contribution for L=           0  read in
    real space projection operators read in
  non local Contribution for L=           0  read in
    real space projection operators read in
  non local Contribution for L=           1  read in
    real space projection operators read in
  non local Contribution for L=           1  read in
    real space projection operators read in
    PAW grid and wavefunctions read in

   number of l-projection  operators is LMAX  =           4
   number of lm-projection operators is LMMAX =           8

 POTCAR:    PAW_PBE N_h 06Feb2004                 
   VRHFIN =N: s2p3                                                                                  
   LEXCH  = PE                                                                                      
   EATOM  =   264.5486 eV,   19.4438 Ry                                                             
                                                                                                    
   TITEL  = PAW_PBE N_h 06Feb2004                                                                   
   LULTRA =        F    use ultrasoft PP ?                                                          
   IUNSCR =        1    unscreen: 0-lin 1-nonlin 2-no                                               
   RPACOR =    0.800    partial core radius                                                         
   POMASS =   14.001; ZVAL   =    5.000    mass and valenz                                          
   RCORE  =    1.100    outmost cutoff radius                                                       
   RWIGS  =    1.480; RWIGS  =    0.783    wigner-seitz radius (au A)                               
   ENMAX  =  700.000; ENMIN  =  500.000 eV                                                          
   ICORE  =        2    local potential                                                             
   LCOR   =        T    correct aug charges                                                         
   LPAW   =        T    paw PP                                                                      
   EAUG   =  904.640                                                                                
   DEXC   =    0.000                                                                                
   RMAX   =    1.127    core radius for proj-oper                                                   
   RAUG   =    1.300    factor for augmentation sphere                                              
   RDEP   =    1.115    radius for radial grids                                                     
   RDEPT  =    1.106    core radius for aug-charge                                                  
                                                                                                    
   Atomic configuration                                                                             
    4 entries                                                                                       
     n  l   j            E        occ.                                                              
     1  0  0.50      -384.7179   2.0000                                                             
     2  0  0.50       -18.5828   2.0000                                                             
     2  1  0.50        -7.0898   3.0000                                                             
     3  2  1.50        -6.8029   0.0000                                                             
   Description                                                                                      
     l       E           TYP  RCUT    TYP  RCUT                                                     
     0    -18.5828117     23  1.100                                                                 
     0    -15.0750597     23  1.100                                                                 
     1     -7.0897851     23  1.100                                                                 
     1     -1.9663412     23  1.100                                                                 
     2     -6.8029130      7  1.100                                                                 
  local pseudopotential read in
  partial core-charges read in
  partial kinetic energy density read in
  kinetic energy density of atom read in
  atomic valenz-charges read in
  non local Contribution for L=           0  read in
    real space projection operators read in
  non local Contribution for L=           0  read in
    real space projection operators read in
  non local Contribution for L=           1  read in
    real space projection operators read in
  non local Contribution for L=           1  read in
    real space projection operators read in
    PAW grid and wavefunctions read in

   number of l-projection  operators is LMAX  =           4
   number of lm-projection operators is LMMAX =           8

 POTCAR:    PAW_PBE O_h 06Feb2004                 
   VRHFIN =O: s2p4                                                                                  
   LEXCH  = PE                                                                                      
   EATOM  =   432.3788 eV,   31.7789 Ry                                                             
                                                                                                    
   TITEL  = PAW_PBE O_h 06Feb2004                                                                   
   LULTRA =        F    use ultrasoft PP ?                                                          
   IUNSCR =        1    unscreen: 0-lin 1-nonlin 2-no                                               
   RPACOR =    0.800    partial core radius                                                         
   POMASS =   16.000; ZVAL   =    6.000    mass and valenz                                          
   RCORE  =    1.100    outmost cutoff radius                                                       
   RWIGS  =    1.400; RWIGS  =    0.741    wigner-seitz radius (au A)                               
   ENMAX  =  700.000; ENMIN  =  500.000 eV                                                          
   ICORE  =        2    local potential                                                             
   LCOR   =        T    correct aug charges                                                         
   LPAW   =        T    paw PP                                                                      
   EAUG   =  888.804                                                                                
   DEXC   =    0.000                                                                                
   RMAX   =    1.128    core radius for proj-oper                                                   
   RAUG   =    1.300    factor for augmentation sphere                                              
   RDEP   =    1.125    radius for radial grids                                                     
   RDEPT  =    1.088    core radius for aug-charge                                                  
                                                                                                    
   Atomic configuration                                                                             
    4 entries                                                                                       
     n  l   j            E        occ.                                                              
     1  0  0.50      -514.6923   2.0000                                                             
     2  0  0.50       -23.9615   2.0000                                                             
     2  1  0.50        -9.0305   4.0000                                                             
     3  2  1.50        -9.5241   0.0000                                                             
   Description                                                                                      
     l       E           TYP  RCUT    TYP  RCUT                                                     
     0    -23.9615319     23  1.100                                                                 
     0    -25.3221145     23  1.100                                                                 
     1     -9.0304911     23  1.100                                                                 
     1     -5.4802209     23  1.100                                                                 
     2     -9.5240782      7  1.100                                                                 
  local pseudopotential read in
  partial core-charges read in
  partial kinetic energy density read in
  atomic valenz-charges read in
  non local Contribution for L=           0  read in
    real space projection operators read in
  non local Contribution for L=           0  read in
    real space projection operators read in
  non local Contribution for L=           1  read in
    real space projection operators read in
  non local Contribution for L=           1  read in
    real space projection operators read in
    PAW grid and wavefunctions read in

   number of l-projection  operators is LMAX  =           4
   number of lm-projection operators is LMMAX =           8

 POTCAR:    PAW_PBE H_h 06Feb2004                 
   VRHFIN =H: ultrasoft test                                                                        
   LEXCH  = PE                                                                                      
   EATOM  =    12.4884 eV,    0.9179 Ry                                                             
                                                                                                    
   TITEL  = PAW_PBE H_h 06Feb2004                                                                   
   LULTRA =        F    use ultrasoft PP ?                                                          
   IUNSCR =        0    unscreen: 0-lin 1-nonlin 2-no                                               
   RPACOR =    0.000    partial core radius                                                         
   POMASS =    1.000; ZVAL   =    1.000    mass and valenz                                          
   RCORE  =    0.800    outmost cutoff radius                                                       
   RWIGS  =    0.700; RWIGS  =    0.370    wigner-seitz radius (au A)                               
   ENMAX  =  700.000; ENMIN  =  350.000 eV                                                          
   RCLOC  =    0.701    cutoff for local pot                                                        
   LCOR   =        T    correct aug charges                                                         
   LPAW   =        T    paw PP                                                                      
   EAUG   = 1000.000                                                                                
   RMAX   =    0.819    core radius for proj-oper                                                   
   RAUG   =    1.000    factor for augmentation sphere                                              
   RDEP   =    0.817    radius for radial grids                                                     
   RDEPT  =    0.817    core radius for aug-charge                                                  
                                                                                                    
   Atomic configuration                                                                             
    2 entries                                                                                       
     n  l   j            E        occ.                                                              
     1  0  0.50        -6.4927   1.0000                                                             
     2  1  0.50        -3.4015   0.0000                                                             
   Description                                                                                      
     l       E           TYP  RCUT    TYP  RCUT                                                     
     0     -6.4927493     23  0.800                                                                 
     0      6.8029130     23  0.800                                                                 
     1     -6.8029130     23  0.800                                                                 
  local pseudopotential read in
  atomic valenz-charges read in
  non local Contribution for L=           0  read in
    real space projection operators read in
  non local Contribution for L=           0  read in
    real space projection operators read in
  non local Contribution for L=           1  read in
    real space projection operators read in
    PAW grid and wavefunctions read in

   number of l-projection  operators is LMAX  =           3
   number of lm-projection operators is LMMAX =           5

 -----------------------------------------------------------------------------
|                                                                             |
|               ----> ADVICE to this user running VASP <----                  |
|                                                                             |
|     You have a (more or less) 'large supercell' and for larger cells it     |
|     might be more efficient to use real-space projection operators.         |
|     Therefore, try LREAL= Auto in the INCAR file.                           |
|     Mind: For very accurate calculation, you might also keep the            |
|     reciprocal projection scheme (i.e. LREAL=.FALSE.).                      |
|                                                                             |
 -----------------------------------------------------------------------------

  PAW_PBE C_h 06Feb2004                 :
 energy of atom  1       EATOM= -147.1560
 kinetic energy error for atom=    0.0031 (will be added to EATOM!!)
  PAW_PBE N_h 06Feb2004                 :
 energy of atom  2       EATOM= -264.5486
 kinetic energy error for atom=    0.0081 (will be added to EATOM!!)
  PAW_PBE O_h 06Feb2004                 :
 energy of atom  3       EATOM= -432.3788
 kinetic energy error for atom=    0.0171 (will be added to EATOM!!)
  PAW_PBE H_h 06Feb2004                 :
 energy of atom  4       EATOM=  -12.4884
 kinetic energy error for atom=    0.0006 (will be added to EATOM!!)


 POSCAR:  C  N  O  H
  positions in cartesian coordinates
  No initial velocities read in
 exchange correlation table for  LEXCH =        8
   RHO(1)=    0.500       N(1)  =     2000
   RHO(2)=  100.500       N(2)  =     4000

 VTST: version 4.1, (05/19/21)

 CHAIN: initializing optimizer
 
 OPT: Using VASP Dynamics algorithm
 CHAIN: Read ICHAIN            0

 POSCAR:  C  N  O  H
  positions in cartesian coordinates
  No initial velocities read in



--------------------------------------------------------------------------------------------------------


 ion  position               nearest neighbor table
   1  0.862  0.796  0.366-  15 1.10  17 1.10  13 1.10   3 1.51
   2  0.138  0.204  0.634-  16 1.10  18 1.10  14 1.10   4 1.51
   3  0.782  0.599  0.276-  21 1.10  19 1.10   9 1.46   1 1.51
   4  0.218  0.401  0.724-  22 1.10  20 1.10  10 1.46   2 1.51
   5  0.008  0.280  0.153-  11 1.24   7 1.34   9 1.35
   6  0.992  0.720  0.847-  12 1.24   8 1.34  10 1.35
   7  0.252  0.163  0.132-  23 1.02  25 1.03   5 1.34
   8  0.748  0.837  0.868-  24 1.02  26 1.03   6 1.34
   9  0.037  0.465  0.240-   5 1.35   3 1.46
  10  0.963  0.535  0.760-   6 1.35   4 1.46
  11  0.780  0.225  0.103-   5 1.24
  12  0.220  0.775  0.897-   6 1.24
  13  0.677  0.902  0.398-   1 1.10
  14  0.323  0.098  0.602-   2 1.10
  15  0.020  0.782  0.495-   1 1.10
  16  0.980  0.218  0.505-   2 1.10
  17  0.945  0.858  0.273-   1 1.10
  18  0.055  0.142  0.727-   2 1.10
  19  0.697  0.537  0.368-   3 1.10
  20  0.303  0.463  0.632-   4 1.10
  21  0.628  0.610  0.145-   3 1.10
  22  0.372  0.390  0.855-   4 1.10
  23  0.428  0.221  0.155-   7 1.02
  24  0.572  0.779  0.845-   8 1.02
  25  0.247  0.025  0.055-   7 1.03
  26  0.753  0.975  0.945-   8 1.03

  LATTYP: Found a triclinic cell.
 ALAT       =     5.0510000000
 B/A-ratio  =     2.1551506031
 C/A-ratio  =     2.0563667669
 COS(alpha) =     0.0114247620
 COS(beta)  =     0.4593389698
 COS(gamma) =     0.7792973105
  
  Lattice vectors:
  
 A1 = (  -5.0510000000,   0.0000000000,   0.0000000000)
 A2 = (  -8.4831700000,   6.8215500000,   0.0000000000)
 A3 = (  -4.7710200000,  -5.7438000000,  -7.2201000000)


Analysis of symmetry for initial positions (statically):
=====================================================================
 Subroutine PRICEL returns:
 Original cell was already a primitive cell.
 

 Routine SETGRP: Setting up the symmetry group for a 
 triclinic supercell.


 Subroutine GETGRP returns: Found  1 space group operations
 (whereof  1 operations were pure point group operations)
 out of a pool of  2 trial point group operations.


The static configuration has the point symmetry C_1 .


Analysis of symmetry for dynamics (positions and initial velocities):
=====================================================================
 Subroutine PRICEL returns:
 Original cell was already a primitive cell.
 

 Routine SETGRP: Setting up the symmetry group for a 
 triclinic supercell.


 Subroutine GETGRP returns: Found  1 space group operations
 (whereof  1 operations were pure point group operations)
 out of a pool of  2 trial point group operations.


The dynamic configuration has the point symmetry C_1 .


 Subroutine INISYM returns: Found  1 space group operations
 (whereof  1 operations are pure point group operations),
 and found     1 'primitive' translations


----------------------------------------------------------------------------------------

                                     Primitive cell                                     

  volume of cell :     248.7732

  direct lattice vectors                    reciprocal lattice vectors
     5.051000000  0.000000000  0.000000000     0.197980598 -0.046983007  0.045053615
     1.618830000  6.821550000  0.000000000    -0.000000000  0.146594249  0.021882239
    -1.898810000 -1.077750000  7.220100000     0.000000000  0.000000000  0.138502237

  length of vectors
     5.051000000  7.011002423  7.543001292     0.208407169  0.148218441  0.138502237

  position of ions in fractional coordinates (direct lattice)
     0.861972589  0.796445238  0.365859022
     0.138064667  0.203535027  0.634154269
     0.781578986  0.599200900  0.276319201
     0.218453392  0.400780539  0.723688095
     0.008079648  0.279705926  0.153298677
     0.991920352  0.720280294  0.846703236
     0.252468354  0.162825871  0.131697782
     0.747561775  0.837144037  0.868309565
     0.036678920  0.464558963  0.240074308
     0.963348325  0.535416572  0.759931229
     0.779667646  0.225134261  0.102897307
     0.220345002  0.774846955  0.897083248
     0.677140016  0.902413565  0.398399101
     0.322905155  0.097572764  0.601620467
     0.019738651  0.781948789  0.494963713
     0.980308668  0.218017261  0.505041485
     0.945103312  0.857539709  0.272613991
     0.054939063  0.142431463  0.727397938
     0.697329547  0.536766822  0.368335189
     0.302705369  0.463210509  0.631671772
     0.627873694  0.610106943  0.145092024
     0.372157345  0.389873471  0.854915837
     0.428225287  0.220651294  0.155046496
     0.571800867  0.779323034  0.844962680
     0.247154217  0.025305469  0.054523041
     0.752858552  0.974694531  0.945476959

  ion indices of the primitive-cell ions
   primitive index   ion index
                 1           1
                 2           2
                 3           3
                 4           4
                 5           5
                 6           6
                 7           7
                 8           8
                 9           9
                10          10
                11          11
                12          12
                13          13
                14          14
                15          15
                16          16
                17          17
                18          18
                19          19
                20          20
                21          21
                22          22
                23          23
                24          24
                25          25
                26          26

----------------------------------------------------------------------------------------



 KPOINTS: auto                                    

Automatic generation of k-mesh.
 Grid dimensions read from file:
 generate k-points for:    6    4    4

 Generating k-lattice:

  Cartesian coordinates                     Fractional coordinates (reciprocal lattice)
     0.032996766 -0.007830501  0.007508936     0.166666667 -0.000000000  0.000000000
    -0.000000000  0.036648562  0.005470560     0.000000000  0.250000000  0.000000000
     0.000000000  0.000000000  0.034625559     0.000000000  0.000000000  0.250000000

  Length of vectors
     0.034734528  0.037054610  0.034625559

  Shift w.r.t. Gamma in fractional coordinates (k-lattice)
     0.000000000  0.000000000  0.000000000

 
 Subroutine IBZKPT returns following result:
 ===========================================
 
 Found     52 irreducible k-points:
 
 Following reciprocal coordinates:
            Coordinates               Weight
  0.000000  0.000000  0.000000      1.000000
  0.166667  0.000000  0.000000      2.000000
  0.333333  0.000000  0.000000      2.000000
  0.500000  0.000000  0.000000      1.000000
  0.000000  0.250000  0.000000      2.000000
  0.166667  0.250000  0.000000      2.000000
  0.333333  0.250000  0.000000      2.000000
  0.500000  0.250000  0.000000      2.000000
 -0.333333  0.250000  0.000000      2.000000
 -0.166667  0.250000  0.000000      2.000000
  0.000000  0.500000  0.000000      1.000000
  0.166667  0.500000  0.000000      2.000000
  0.333333  0.500000  0.000000      2.000000
  0.500000  0.500000  0.000000      1.000000
  0.000000  0.000000  0.250000      2.000000
  0.166667  0.000000  0.250000      2.000000
  0.333333  0.000000  0.250000      2.000000
  0.500000  0.000000  0.250000      2.000000
 -0.333333  0.000000  0.250000      2.000000
 -0.166667  0.000000  0.250000      2.000000
  0.000000  0.250000  0.250000      2.000000
  0.166667  0.250000  0.250000      2.000000
  0.333333  0.250000  0.250000      2.000000
  0.500000  0.250000  0.250000      2.000000
 -0.333333  0.250000  0.250000      2.000000
 -0.166667  0.250000  0.250000      2.000000
  0.000000  0.500000  0.250000      2.000000
  0.166667  0.500000  0.250000      2.000000
  0.333333  0.500000  0.250000      2.000000
  0.500000  0.500000  0.250000      2.000000
 -0.333333  0.500000  0.250000      2.000000
 -0.166667  0.500000  0.250000      2.000000
  0.000000 -0.250000  0.250000      2.000000
  0.166667 -0.250000  0.250000      2.000000
  0.333333 -0.250000  0.250000      2.000000
  0.500000 -0.250000  0.250000      2.000000
 -0.333333 -0.250000  0.250000      2.000000
 -0.166667 -0.250000  0.250000      2.000000
  0.000000  0.000000  0.500000      1.000000
  0.166667  0.000000  0.500000      2.000000
  0.333333  0.000000  0.500000      2.000000
  0.500000  0.000000  0.500000      1.000000
  0.000000  0.250000  0.500000      2.000000
  0.166667  0.250000  0.500000      2.000000
  0.333333  0.250000  0.500000      2.000000
  0.500000  0.250000  0.500000      2.000000
 -0.333333  0.250000  0.500000      2.000000
 -0.166667  0.250000  0.500000      2.000000
  0.000000  0.500000  0.500000      1.000000
  0.166667  0.500000  0.500000      2.000000
  0.333333  0.500000  0.500000      2.000000
  0.500000  0.500000  0.500000      1.000000
 
 Following cartesian coordinates:
            Coordinates               Weight
  0.000000  0.000000  0.000000      1.000000
  0.032997 -0.007831  0.007509      2.000000
  0.065994 -0.015661  0.015018      2.000000
  0.098990 -0.023492  0.022527      1.000000
  0.000000  0.036649  0.005471      2.000000
  0.032997  0.028818  0.012979      2.000000
  0.065994  0.020988  0.020488      2.000000
  0.098990  0.013157  0.027997      2.000000
 -0.065994  0.052310 -0.009547      2.000000
 -0.032997  0.044479 -0.002038      2.000000
  0.000000  0.073297  0.010941      1.000000
  0.032997  0.065467  0.018450      2.000000
  0.065994  0.057636  0.025959      2.000000
  0.098990  0.049806  0.033468      1.000000
  0.000000  0.000000  0.034626      2.000000
  0.032997 -0.007831  0.042134      2.000000
  0.065994 -0.015661  0.049643      2.000000
  0.098990 -0.023492  0.057152      2.000000
 -0.065994  0.015661  0.019608      2.000000
 -0.032997  0.007831  0.027117      2.000000
  0.000000  0.036649  0.040096      2.000000
  0.032997  0.028818  0.047605      2.000000
  0.065994  0.020988  0.055114      2.000000
  0.098990  0.013157  0.062623      2.000000
 -0.065994  0.052310  0.025078      2.000000
 -0.032997  0.044479  0.032587      2.000000
  0.000000  0.073297  0.045567      2.000000
  0.032997  0.065467  0.053076      2.000000
  0.065994  0.057636  0.060585      2.000000
  0.098990  0.049806  0.068093      2.000000
 -0.065994  0.088958  0.030549      2.000000
 -0.032997  0.081128  0.038058      2.000000
  0.000000 -0.036649  0.029155      2.000000
  0.032997 -0.044479  0.036664      2.000000
  0.065994 -0.052310  0.044173      2.000000
  0.098990 -0.060140  0.051682      2.000000
 -0.065994 -0.020988  0.014137      2.000000
 -0.032997 -0.028818  0.021646      2.000000
  0.000000  0.000000  0.069251      1.000000
  0.032997 -0.007831  0.076760      2.000000
  0.065994 -0.015661  0.084269      2.000000
  0.098990 -0.023492  0.091778      1.000000
  0.000000  0.036649  0.074722      2.000000
  0.032997  0.028818  0.082231      2.000000
  0.065994  0.020988  0.089740      2.000000
  0.098990  0.013157  0.097248      2.000000
 -0.065994  0.052310  0.059704      2.000000
 -0.032997  0.044479  0.067213      2.000000
  0.000000  0.073297  0.080192      1.000000
  0.032997  0.065467  0.087701      2.000000
  0.065994  0.057636  0.095210      2.000000
  0.098990  0.049806  0.102719      1.000000
 


--------------------------------------------------------------------------------------------------------




 Dimension of arrays:
   k-points           NKPTS =     52   k-points in BZ     NKDIM =     52   number of bands    NBANDS=     52
   number of dos      NEDOS =    301   number of ions     NIONS =     26
   non local maximal  LDIM  =      4   non local SUM 2l+1 LMDIM =      8
   total plane-waves  NPLWV = 311040
   max r-space proj   IRMAX =      1   max aug-charges    IRDMAX=   9317
   dimension x,y,z NGX =    54 NGY =   72 NGZ =   80
   dimension x,y,z NGXF=   108 NGYF=  144 NGZF=  160
   support grid    NGXF=   108 NGYF=  144 NGZF=  160
   ions per type =               6   2   4  14
   NGX,Y,Z   is equivalent  to a cutoff of  17.77, 17.07, 17.63 a.u.
   NGXF,Y,Z  is equivalent  to a cutoff of  35.55, 34.15, 35.26 a.u.

 SYSTEM =  unknown system                          
 POSCAR =   C  N  O  H                             

 Startparameter for this run:
   NWRITE =      2    write-flag & timer
   PREC   = accura    normal or accurate (medium, high low for compatibility)
   ISTART =      0    job   : 0-new  1-cont  2-samecut
   ICHARG =      2    charge: 1-file 2-atom 10-const
   ISPIN  =      1    spin polarized calculation?
   LNONCOLLINEAR =      F non collinear calculations
   LSORBIT =      F    spin-orbit coupling
   INIWAV =      1    electr: 0-lowe 1-rand  2-diag
   LASPH  =      F    aspherical Exc in radial PAW
 Electronic Relaxation 1
   ENCUT  = 1000.0 eV  73.50 Ry    8.57 a.u.  13.02 18.08 19.45*2*pi/ulx,y,z
   ENINI  = 1000.0     initial cutoff
   ENAUG  = 1000.0 eV  augmentation charge cutoff
   NELM   =     60;   NELMIN=  2; NELMDL= -5     # of ELM steps 
   EDIFF  = 0.1E-06   stopping-criterion for ELM
   LREAL  =      F    real-space projection
   NLSPLINE    = F    spline interpolate recip. space projectors
   LCOMPAT=      F    compatible to vasp.4.4
   GGA_COMPAT  = T    GGA compatible to vasp.4.4-vasp.4.6
   LMAXPAW     = -100 max onsite density
   LMAXMIX     =    2 max onsite mixed and CHGCAR
   VOSKOWN=      0    Vosko Wilk Nusair interpolation
   ROPT   =    0.00000   0.00000   0.00000   0.00000
 Ionic relaxation
   EDIFFG = 0.1E-05   stopping-criterion for IOM
   NSW    =      0    number of steps for IOM
   NBLOCK =      1;   KBLOCK =      1    inner block; outer block 
   IBRION =     -1    ionic relax: 0-MD 1-quasi-New 2-CG
   NFREE  =      0    steps in history (QN), initial steepest desc. (CG)
   ISIF   =      0    stress and relaxation
   IWAVPR =     10    prediction:  0-non 1-charg 2-wave 3-comb
   ISYM   =      2    0-nonsym 1-usesym 2-fastsym
   LCORR  =      T    Harris-Foulkes like correction to forces

   POTIM  = 0.5000    time-step for ionic-motion
   TEIN   =    0.0    initial temperature
   TEBEG  =    0.0;   TEEND  =   0.0 temperature during run
   SMASS  =  -3.00    Nose mass-parameter (am)
   estimated Nose-frequenzy (Omega)   =  0.10E-29 period in steps = 0.13E+47 mass=  -0.583E-27a.u.
   SCALEE = 1.0000    scale energy and forces
   NPACO  =    256;   APACO  = 10.0  distance and # of slots for P.C.
   PSTRESS=    0.0 pullay stress

  Mass of Ions in am
   POMASS =  12.01 14.00 16.00  1.00
  Ionic Valenz
   ZVAL   =   4.00  5.00  6.00  1.00
  Atomic Wigner-Seitz radii
   RWIGS  =  -1.00 -1.00 -1.00 -1.00
  virtual crystal weights 
   VCA    =   1.00  1.00  1.00  1.00
   NELECT =      72.0000    total number of electrons
   NUPDOWN=      -1.0000    fix difference up-down

 DOS related values:
   EMIN   =  10.00;   EMAX   =-10.00  energy-range for DOS
   EFERMI =   0.00;   METHOD = LEGACY      
   ISMEAR =     0;   SIGMA  =   0.01  broadening in eV -4-tet -1-fermi 0-gaus

 Electronic relaxation 2 (details)
   IALGO  =     58    algorithm
   LDIAG  =      T    sub-space diagonalisation (order eigenvalues)
   LSUBROT=      F    optimize rotation matrix (better conditioning)
   TURBO    =      0    0=normal 1=particle mesh
   IRESTART =      0    0=no restart 2=restart with 2 vectors
   NREBOOT  =      0    no. of reboots
   NMIN     =      0    reboot dimension
   EREF     =   0.00    reference energy to select bands
   IMIX   =      4    mixing-type and parameters
     AMIX     =   0.40;   BMIX     =  1.00
     AMIX_MAG =   1.60;   BMIX_MAG =  1.00
     AMIN     =   0.10
     WC   =   100.;   INIMIX=   1;  MIXPRE=   1;  MAXMIX= -45

 Intra band minimization:
   WEIMIN = 0.0000     energy-eigenvalue tresh-hold
   EBREAK =  0.48E-09  absolut break condition
   DEPER  =   0.30     relativ break condition  

   TIME   =   0.40     timestep for ELM

  volume/ion in A,a.u.               =       9.57        64.57
  Fermi-wavevector in a.u.,A,eV,Ry     =   1.082890  2.046366 15.954890  1.172651
  Thomas-Fermi vector in A             =   2.218943

 Write flags
   LWAVE        =      F    write WAVECAR
   LDOWNSAMPLE  =      F    k-point downsampling of WAVECAR
   LCHARG       =      T    write CHGCAR
   LVTOT        =      F    write LOCPOT, total local potential
   LVHAR        =      F    write LOCPOT, Hartree potential only
   LELF         =      F    write electronic localiz. function (ELF)
   LORBIT       =      0    0 simple, 1 ext, 2 COOP (PROOUT), +10 PAW based schemes


 Dipole corrections
   LMONO  =      F    monopole corrections only (constant potential shift)
   LDIPOL =      F    correct potential (dipole corrections)
   IDIPOL =      0    1-x, 2-y, 3-z, 4-all directions 
   EPSILON=  1.0000000 bulk dielectric constant

 Exchange correlation treatment:
   GGA     =    --    GGA type
   LEXCH   =     8    internal setting for exchange type
   LIBXC   =     F    Libxc                    
   VOSKOWN =     0    Vosko Wilk Nusair interpolation
   LHFCALC =     F    Hartree Fock is set to
   LHFONE  =     F    Hartree Fock one center treatment
   AEXX    =    0.0000 exact exchange contribution

 Linear response parameters
   LEPSILON=     F    determine dielectric tensor
   LRPA    =     F    only Hartree local field effects (RPA)
   LNABLA  =     F    use nabla operator in PAW spheres
   LVEL    =     F    velocity operator in full k-point grid
   CSHIFT  =0.1000    complex shift for real part using Kramers Kronig
   OMEGAMAX=  -1.0    maximum frequency
   DEG_THRESHOLD= 0.2000000E-02 threshold for treating states as degnerate
   RTIME   =   -0.100 relaxation time in fs
  (WPLASMAI=    0.000 imaginary part of plasma frequency in eV, 0.658/RTIME)
   DFIELD  = 0.0000000 0.0000000 0.0000000 field for delta impulse in time

  Optional k-point grid parameters
   LKPOINTS_OPT  =     F    use optional k-point grid
   KPOINTS_OPT_MODE=     1    mode for optional k-point grid

 Orbital magnetization related:
   ORBITALMAG=     F  switch on orbital magnetization
   LCHIMAG   =     F  perturbation theory with respect to B field
   DQ        =  0.001000  dq finite difference perturbation B field
   LLRAUG    =     F  two centre corrections for induced B field
   LBONE     =     F  B-component reconstruction in AE one-centre
   LVGVCALC  =     T  calculate vGv susceptibility
   LVGVAPPL  =     F  apply vGv susceptibility instead of pGv for G=0

 Random number generation:
   RANDOM_GENERATOR = DEFAULT
   PCG_SEED         = not used


--------------------------------------------------------------------------------------------------------


 Static calculation
 charge density and potential will be updated during run
 non-spin polarized calculation
 Conjugate gradient for all bands (Freysoldt, et al. PRB 79, 241103 (2009))
 preconditioned conjugated gradient                                        
 perform sub-space diagonalisation
    before iterative eigenvector-optimisation
 modified Broyden-mixing scheme, WC =      100.0
 initial mixing is a Kerker type mixing with AMIX =  0.4000 and BMIX =      1.0000
 Hartree-type preconditioning will be used
 using additional bands           16
 reciprocal scheme for non local part
 use partial core corrections
 no Harris-corrections to forces 
 use gradient corrections 
 use of overlap-Matrix (Vanderbilt PP)
 Gauss-broadening in eV      SIGMA  =   0.01


--------------------------------------------------------------------------------------------------------


  energy-cutoff  :     1000.00
  volume of cell :      248.77
      direct lattice vectors                 reciprocal lattice vectors
     5.051000000  0.000000000  0.000000000     0.197980598 -0.046983007  0.045053615
     1.618830000  6.821550000  0.000000000    -0.000000000  0.146594249  0.021882239
    -1.898810000 -1.077750000  7.220100000     0.000000000  0.000000000  0.138502237

  length of vectors
     5.051000000  7.011002423  7.543001292     0.208407169  0.148218441  0.138502237



 k-points in units of 2pi/SCALE and weight: auto                                    
   0.00000000  0.00000000  0.00000000       0.010
   0.03299677 -0.00783050  0.00750894       0.021
   0.06599353 -0.01566100  0.01501787       0.021
   0.09899030 -0.02349150  0.02252681       0.010
   0.00000000  0.03664856  0.00547056       0.021
   0.03299677  0.02881806  0.01297950       0.021
   0.06599353  0.02098756  0.02048843       0.021
   0.09899030  0.01315706  0.02799737       0.021
  -0.06599353  0.05230956 -0.00954731       0.021
  -0.03299677  0.04447906 -0.00203838       0.021
   0.00000000  0.07329712  0.01094112       0.010
   0.03299677  0.06546662  0.01845006       0.021
   0.06599353  0.05763612  0.02595899       0.021
   0.09899030  0.04980562  0.03346793       0.010
   0.00000000  0.00000000  0.03462556       0.021
   0.03299677 -0.00783050  0.04213449       0.021
   0.06599353 -0.01566100  0.04964343       0.021
   0.09899030 -0.02349150  0.05715237       0.021
  -0.06599353  0.01566100  0.01960769       0.021
  -0.03299677  0.00783050  0.02711662       0.021
   0.00000000  0.03664856  0.04009612       0.021
   0.03299677  0.02881806  0.04760505       0.021
   0.06599353  0.02098756  0.05511399       0.021
   0.09899030  0.01315706  0.06262293       0.021
  -0.06599353  0.05230956  0.02507825       0.021
  -0.03299677  0.04447906  0.03258718       0.021
   0.00000000  0.07329712  0.04556668       0.021
   0.03299677  0.06546662  0.05307561       0.021
   0.06599353  0.05763612  0.06058455       0.021
   0.09899030  0.04980562  0.06809349       0.021
  -0.06599353  0.08895813  0.03054881       0.021
  -0.03299677  0.08112763  0.03805774       0.021
   0.00000000 -0.03664856  0.02915500       0.021
   0.03299677 -0.04447906  0.03666394       0.021
   0.06599353 -0.05230956  0.04417287       0.021
   0.09899030 -0.06014007  0.05168181       0.021
  -0.06599353 -0.02098756  0.01413713       0.021
  -0.03299677 -0.02881806  0.02164606       0.021
   0.00000000  0.00000000  0.06925112       0.010
   0.03299677 -0.00783050  0.07676005       0.021
   0.06599353 -0.01566100  0.08426899       0.021
   0.09899030 -0.02349150  0.09177793       0.010
   0.00000000  0.03664856  0.07472168       0.021
   0.03299677  0.02881806  0.08223061       0.021
   0.06599353  0.02098756  0.08973955       0.021
   0.09899030  0.01315706  0.09724849       0.021
  -0.06599353  0.05230956  0.05970381       0.021
  -0.03299677  0.04447906  0.06721274       0.021
   0.00000000  0.07329712  0.08019224       0.010
   0.03299677  0.06546662  0.08770117       0.021
   0.06599353  0.05763612  0.09521011       0.021
   0.09899030  0.04980562  0.10271905       0.010

 k-points in reciprocal lattice and weights: auto                                    
   0.00000000  0.00000000  0.00000000       0.010
   0.16666667  0.00000000  0.00000000       0.021
   0.33333333  0.00000000  0.00000000       0.021
   0.50000000  0.00000000  0.00000000       0.010
   0.00000000  0.25000000  0.00000000       0.021
   0.16666667  0.25000000  0.00000000       0.021
   0.33333333  0.25000000  0.00000000       0.021
   0.50000000  0.25000000  0.00000000       0.021
  -0.33333333  0.25000000  0.00000000       0.021
  -0.16666667  0.25000000  0.00000000       0.021
   0.00000000  0.50000000  0.00000000       0.010
   0.16666667  0.50000000  0.00000000       0.021
   0.33333333  0.50000000  0.00000000       0.021
   0.50000000  0.50000000  0.00000000       0.010
   0.00000000  0.00000000  0.25000000       0.021
   0.16666667  0.00000000  0.25000000       0.021
   0.33333333  0.00000000  0.25000000       0.021
   0.50000000  0.00000000  0.25000000       0.021
  -0.33333333  0.00000000  0.25000000       0.021
  -0.16666667  0.00000000  0.25000000       0.021
   0.00000000  0.25000000  0.25000000       0.021
   0.16666667  0.25000000  0.25000000       0.021
   0.33333333  0.25000000  0.25000000       0.021
   0.50000000  0.25000000  0.25000000       0.021
  -0.33333333  0.25000000  0.25000000       0.021
  -0.16666667  0.25000000  0.25000000       0.021
   0.00000000  0.50000000  0.25000000       0.021
   0.16666667  0.50000000  0.25000000       0.021
   0.33333333  0.50000000  0.25000000       0.021
   0.50000000  0.50000000  0.25000000       0.021
  -0.33333333  0.50000000  0.25000000       0.021
  -0.16666667  0.50000000  0.25000000       0.021
   0.00000000 -0.25000000  0.25000000       0.021
   0.16666667 -0.25000000  0.25000000       0.021
   0.33333333 -0.25000000  0.25000000       0.021
   0.50000000 -0.25000000  0.25000000       0.021
  -0.33333333 -0.25000000  0.25000000       0.021
  -0.16666667 -0.25000000  0.25000000       0.021
   0.00000000  0.00000000  0.50000000       0.010
   0.16666667  0.00000000  0.50000000       0.021
   0.33333333  0.00000000  0.50000000       0.021
   0.50000000  0.00000000  0.50000000       0.010
   0.00000000  0.25000000  0.50000000       0.021
   0.16666667  0.25000000  0.50000000       0.021
   0.33333333  0.25000000  0.50000000       0.021
   0.50000000  0.25000000  0.50000000       0.021
  -0.33333333  0.25000000  0.50000000       0.021
  -0.16666667  0.25000000  0.50000000       0.021
   0.00000000  0.50000000  0.50000000       0.010
   0.16666667  0.50000000  0.50000000       0.021
   0.33333333  0.50000000  0.50000000       0.021
   0.50000000  0.50000000  0.50000000       0.010

 position of ions in fractional coordinates (direct lattice) 
   0.86197259  0.79644524  0.36585902
   0.13806467  0.20353503  0.63415427
   0.78157899  0.59920090  0.27631920
   0.21845339  0.40078054  0.72368810
   0.00807965  0.27970593  0.15329868
   0.99192035  0.72028029  0.84670324
   0.25246835  0.16282587  0.13169778
   0.74756178  0.83714404  0.86830956
   0.03667892  0.46455896  0.24007431
   0.96334832  0.53541657  0.75993123
   0.77966765  0.22513426  0.10289731
   0.22034500  0.77484696  0.89708325
   0.67714002  0.90241356  0.39839910
   0.32290515  0.09757276  0.60162047
   0.01973865  0.78194879  0.49496371
   0.98030867  0.21801726  0.50504149
   0.94510331  0.85753971  0.27261399
   0.05493906  0.14243146  0.72739794
   0.69732955  0.53676682  0.36833519
   0.30270537  0.46321051  0.63167177
   0.62787369  0.61010694  0.14509202
   0.37215734  0.38987347  0.85491584
   0.42822529  0.22065129  0.15504650
   0.57180087  0.77932303  0.84496268
   0.24715422  0.02530547  0.05452304
   0.75285855  0.97469453  0.94547696

 position of ions in cartesian coordinates  (Angst):
   4.94843622  5.03868645  2.64153873
  -0.17728522  0.70496460  4.57865724
   4.39308219  3.78967588  1.99505226
   0.37805745  1.95398964  5.22510042
   0.20252159  1.74281031  1.10683178
   4.56847247  4.00089363  6.11328203
   1.28873600  0.96878754  0.95087115
   3.48237352  4.77479927  6.26928189
   0.48145171  2.91027211  1.73336051
   4.28965578  2.83335504  5.48677947
   4.10717294  1.42486705  0.74292884
   0.66391746  4.31882578  6.47703076
   4.12460418  5.72648462  2.87648135
   0.64658470  0.01720103  4.34375993
   0.42570004  4.80065562  3.57368751
   4.34549414  0.94290719  3.64645003
   5.64428566  5.55594027  1.96830028
  -0.87312095  0.18765022  5.25188585
   3.69174724  3.26460847  2.65941690
   1.07939921  2.47902940  4.56073336
   3.88354726  4.00550209  1.04757892
   0.88758288  1.73815583  6.17257783
   2.22575902  1.33808247  1.11945121
   2.54533410  4.40553251  6.10071505
   1.18581231  0.11386032  0.39366181
   3.58527219  5.62993968  6.82643819



--------------------------------------------------------------------------------------------------------


 k-point   1 :   0.0000 0.0000 0.0000  plane waves:   17851
 k-point   2 :   0.1667 0.0000 0.0000  plane waves:   17854
 k-point   3 :   0.3333 0.0000 0.0000  plane waves:   17868
 k-point   4 :   0.5000 0.0000 0.0000  plane waves:   17838
 k-point   5 :   0.0000 0.2500 0.0000  plane waves:   17836
 k-point   6 :   0.1667 0.2500 0.0000  plane waves:   17859
 k-point   7 :   0.3333 0.2500 0.0000  plane waves:   17872
 k-point   8 :   0.5000 0.2500 0.0000  plane waves:   17882
 k-point   9 :  -0.3333 0.2500 0.0000  plane waves:   17869
 k-point  10 :  -0.1667 0.2500 0.0000  plane waves:   17859
 k-point  11 :   0.0000 0.5000 0.0000  plane waves:   17850
 k-point  12 :   0.1667 0.5000 0.0000  plane waves:   17878
 k-point  13 :   0.3333 0.5000 0.0000  plane waves:   17889
 k-point  14 :   0.5000 0.5000 0.0000  plane waves:   17900
 k-point  15 :   0.0000 0.0000 0.2500  plane waves:   17825
 k-point  16 :   0.1667 0.0000 0.2500  plane waves:   17860
 k-point  17 :   0.3333 0.0000 0.2500  plane waves:   17860
 k-point  18 :   0.5000 0.0000 0.2500  plane waves:   17861
 k-point  19 :  -0.3333 0.0000 0.2500  plane waves:   17861
 k-point  20 :  -0.1667 0.0000 0.2500  plane waves:   17861
 k-point  21 :   0.0000 0.2500 0.2500  plane waves:   17856
 k-point  22 :   0.1667 0.2500 0.2500  plane waves:   17843
 k-point  23 :   0.3333 0.2500 0.2500  plane waves:   17859
 k-point  24 :   0.5000 0.2500 0.2500  plane waves:   17878
 k-point  25 :  -0.3333 0.2500 0.2500  plane waves:   17870
 k-point  26 :  -0.1667 0.2500 0.2500  plane waves:   17879
 k-point  27 :   0.0000 0.5000 0.2500  plane waves:   17856
 k-point  28 :   0.1667 0.5000 0.2500  plane waves:   17837
 k-point  29 :   0.3333 0.5000 0.2500  plane waves:   17867
 k-point  30 :   0.5000 0.5000 0.2500  plane waves:   17901
 k-point  31 :  -0.3333 0.5000 0.2500  plane waves:   17882
 k-point  32 :  -0.1667 0.5000 0.2500  plane waves:   17881
 k-point  33 :   0.0000-0.2500 0.2500  plane waves:   17846
 k-point  34 :   0.1667-0.2500 0.2500  plane waves:   17862
 k-point  35 :   0.3333-0.2500 0.2500  plane waves:   17873
 k-point  36 :   0.5000-0.2500 0.2500  plane waves:   17877
 k-point  37 :  -0.3333-0.2500 0.2500  plane waves:   17903
 k-point  38 :  -0.1667-0.2500 0.2500  plane waves:   17878
 k-point  39 :   0.0000 0.0000 0.5000  plane waves:   17824
 k-point  40 :   0.1667 0.0000 0.5000  plane waves:   17851
 k-point  41 :   0.3333 0.0000 0.5000  plane waves:   17848
 k-point  42 :   0.5000 0.0000 0.5000  plane waves:   17840
 k-point  43 :   0.0000 0.2500 0.5000  plane waves:   17833
 k-point  44 :   0.1667 0.2500 0.5000  plane waves:   17854
 k-point  45 :   0.3333 0.2500 0.5000  plane waves:   17882
 k-point  46 :   0.5000 0.2500 0.5000  plane waves:   17867
 k-point  47 :  -0.3333 0.2500 0.5000  plane waves:   17865
 k-point  48 :  -0.1667 0.2500 0.5000  plane waves:   17856
 k-point  49 :   0.0000 0.5000 0.5000  plane waves:   17818
 k-point  50 :   0.1667 0.5000 0.5000  plane waves:   17842
 k-point  51 :   0.3333 0.5000 0.5000  plane waves:   17873
 k-point  52 :   0.5000 0.5000 0.5000  plane waves:   17868

 maximum and minimum number of plane-waves per node :       577      532

 maximum number of plane-waves:     17903
 maximum index in each direction: 
   IXMAX=   13   IYMAX=   18   IZMAX=   19
   IXMIN=  -13   IYMIN=  -18   IZMIN=  -19


 parallel 3D FFT for wavefunctions:
    minimum data exchange during FFTs selected (reduces bandwidth)
 parallel 3D FFT for charge:
    minimum data exchange during FFTs selected (reduces bandwidth)


 total amount of memory used by VASP MPI-rank0    59959. kBytes
=======================================================================

   base      :      30000. kBytes
   nonl-proj :       7852. kBytes
   fftplans  :       1147. kBytes
   grid      :       2138. kBytes
   one-center:          3. kBytes
   wavefun   :      18819. kBytes

     INWAV:  cpu time      0.0002: real time      0.0003
 Broyden mixing: mesh for mixing (old mesh)
   NGX = 27   NGY = 37   NGZ = 39
  (NGX  =108   NGY  =144   NGZ  =160)
  gives a total of  38961 points

 initial charge density was supplied:
 charge density of overlapping atoms calculated
 number of electron      72.0000000 magnetization 
 keeping initial charge density in first step


--------------------------------------------------------------------------------------------------------


 Maximum index for augmentation-charges          464 (set IRDMAX)


--------------------------------------------------------------------------------------------------------


 First call to EWALD:  gamma=   0.282
 Maximum number of real-space cells 3x 3x 2
 Maximum number of reciprocal cells 2x 3x 3

    FEWALD:  cpu time      0.0023: real time      0.0025


--------------------------------------- Ionic step        1  -------------------------------------------




--------------------------------------- Iteration      1(   1)  ---------------------------------------


    POTLOK:  cpu time      0.0348: real time      0.0352
    SETDIJ:  cpu time      0.0079: real time      0.0081
    TRIAL :  cpu time      2.5146: real time      2.5218
    CORREC:  cpu time      0.0020: real time      0.0020
    --------------------------------------------
      LOOP:  cpu time      2.5635: real time      2.6140

 eigenvalue-minimisations  :  5408
 total energy-change (2. order) : 0.6227763E+03  (-0.5256899E+04)
 number of electron      72.0000000 magnetization 
 augmentation part       72.0000000 magnetization 

 Free energy of the ion-electron system (eV)
  ---------------------------------------------------
  alpha Z        PSCENC =        60.22020652
  Ewald energy   TEWEN  =     -1241.27643166
  -Hartree energ DENC   =     -1716.25921835
  -exchange      EXHF   =         0.00000000
  -V(xc)+E(xc)   XCENC  =       215.55381441
  PAW double counting   =      2500.52627066    -2471.25340254
  entropy T*S    EENTRO =        -0.00013450
  eigenvalues    EBANDS =       -41.00901891
  atomic energy  EATOM  =      3316.27426183
  ---------------------------------------------------
  free energy    TOTEN  =       622.77634746 eV

  energy without entropy =      622.77648196  energy(sigma->0) =      622.77641471


--------------------------------------------------------------------------------------------------------




--------------------------------------- Iteration      1(   2)  ---------------------------------------


    TRIAL :  cpu time      3.0550: real time      3.0559
    CORREC:  cpu time      0.0005: real time      0.0005
    --------------------------------------------
      LOOP:  cpu time      3.0671: real time      3.0867

 eigenvalue-minimisations  :  7388
 total energy-change (2. order) :-0.6694657E+03  (-0.6378685E+03)
 number of electron      72.0000000 magnetization 
 augmentation part       72.0000000 magnetization 

 Free energy of the ion-electron system (eV)
  ---------------------------------------------------
  alpha Z        PSCENC =        60.22020652
  Ewald energy   TEWEN  =     -1241.27643166
  -Hartree energ DENC   =     -1716.25921835
  -exchange      EXHF   =         0.00000000
  -V(xc)+E(xc)   XCENC  =       215.55381441
  PAW double counting   =      2500.52627066    -2471.25340254
  entropy T*S    EENTRO =        -0.00000000
  eigenvalues    EBANDS =      -710.47488252
  atomic energy  EATOM  =      3316.27426183
  ---------------------------------------------------
  free energy    TOTEN  =       -46.68938165 eV

  energy without entropy =      -46.68938165  energy(sigma->0) =      -46.68938165


--------------------------------------------------------------------------------------------------------




--------------------------------------- Iteration      1(   3)  ---------------------------------------


    TRIAL :  cpu time      2.8009: real time      2.8022
    CORREC:  cpu time      0.0004: real time      0.0004
    --------------------------------------------
      LOOP:  cpu time      2.8136: real time      2.8317

 eigenvalue-minimisations  :  6644
 total energy-change (2. order) :-0.1137885E+03  (-0.1125811E+03)
 number of electron      72.0000000 magnetization 
 augmentation part       72.0000000 magnetization 

 Free energy of the ion-electron system (eV)
  ---------------------------------------------------
  alpha Z        PSCENC =        60.22020652
  Ewald energy   TEWEN  =     -1241.27643166
  -Hartree energ DENC   =     -1716.25921835
  -exchange      EXHF   =         0.00000000
  -V(xc)+E(xc)   XCENC  =       215.55381441
  PAW double counting   =      2500.52627066    -2471.25340254
  entropy T*S    EENTRO =        -0.00000000
  eigenvalues    EBANDS =      -824.26336734
  atomic energy  EATOM  =      3316.27426183
  ---------------------------------------------------
  free energy    TOTEN  =      -160.47786647 eV

  energy without entropy =     -160.47786647  energy(sigma->0) =     -160.47786647


--------------------------------------------------------------------------------------------------------




--------------------------------------- Iteration      1(   4)  ---------------------------------------


    TRIAL :  cpu time      2.9814: real time      2.9828
    CORREC:  cpu time      0.0006: real time      0.0006
    --------------------------------------------
      LOOP:  cpu time      3.0109: real time      3.0124

 eigenvalue-minimisations  :  7232
 total energy-change (2. order) :-0.4462473E+01  (-0.4441021E+01)
 number of electron      72.0000000 magnetization 
 augmentation part       72.0000000 magnetization 

 Free energy of the ion-electron system (eV)
  ---------------------------------------------------
  alpha Z        PSCENC =        60.22020652
  Ewald energy   TEWEN  =     -1241.27643166
  -Hartree energ DENC   =     -1716.25921835
  -exchange      EXHF   =         0.00000000
  -V(xc)+E(xc)   XCENC  =       215.55381441
  PAW double counting   =      2500.52627066    -2471.25340254
  entropy T*S    EENTRO =        -0.00000000
  eigenvalues    EBANDS =      -828.72584020
  atomic energy  EATOM  =      3316.27426183
  ---------------------------------------------------
  free energy    TOTEN  =      -164.94033933 eV

  energy without entropy =     -164.94033933  energy(sigma->0) =     -164.94033933


--------------------------------------------------------------------------------------------------------




--------------------------------------- Iteration      1(   5)  ---------------------------------------


    TRIAL :  cpu time      3.0037: real time      3.0051
    CORREC:  cpu time      0.0004: real time      0.0004
    CHARGE:  cpu time      0.1026: real time      0.1031
    --------------------------------------------
      LOOP:  cpu time      3.1193: real time      3.1392

 eigenvalue-minimisations  :  7312
 total energy-change (2. order) :-0.1369682E+00  (-0.1368649E+00)
 number of electron      72.0000000 magnetization 
 augmentation part        0.3345859 magnetization 

 Free energy of the ion-electron system (eV)
  ---------------------------------------------------
  alpha Z        PSCENC =        60.22020652
  Ewald energy   TEWEN  =     -1241.27643166
  -Hartree energ DENC   =     -1716.25921835
  -exchange      EXHF   =         0.00000000
  -V(xc)+E(xc)   XCENC  =       215.55381441
  PAW double counting   =      2500.52627066    -2471.25340254
  entropy T*S    EENTRO =        -0.00000000
  eigenvalues    EBANDS =      -828.86280835
  atomic energy  EATOM  =      3316.27426183
  ---------------------------------------------------
  free energy    TOTEN  =      -165.07730748 eV

  energy without entropy =     -165.07730748  energy(sigma->0) =     -165.07730748


--------------------------------------------------------------------------------------------------------




--------------------------------------- Iteration      1(   6)  ---------------------------------------


    POTLOK:  cpu time      0.0191: real time      0.0191
    SETDIJ:  cpu time      0.0019: real time      0.0019
    TRIAL :  cpu time      1.4696: real time      1.4708
    CORREC:  cpu time      0.7498: real time      0.7509
    CHARGE:  cpu time      0.1034: real time      0.1034
    --------------------------------------------
      LOOP:  cpu time      2.3559: real time      2.3736

 eigenvalue-minimisations  :     0
 total energy-change (2. order) : 0.2759308E+02  (-0.1237197E+02)
 number of electron      72.0000000 magnetization 
 augmentation part        0.2264687 magnetization 

 Free energy of the ion-electron system (eV)
  ---------------------------------------------------
  alpha Z        PSCENC =        60.22020652
  Ewald energy   TEWEN  =     -1241.27643166
  -Hartree energ DENC   =     -2095.34755698
  -exchange      EXHF   =         0.00000000
  -V(xc)+E(xc)   XCENC  =       240.21054287
  PAW double counting   =     25340.20497846   -25314.94856413
  entropy T*S    EENTRO =        -0.00000000
  eigenvalues    EBANDS =      -442.82165961
  atomic energy  EATOM  =      3316.27426183
  ---------------------------------------------------
  free energy    TOTEN  =      -137.48422271 eV

  energy without entropy =     -137.48422271  energy(sigma->0) =     -137.48422271


--------------------------------------------------------------------------------------------------------




--------------------------------------- Iteration      1(   7)  ---------------------------------------


    POTLOK:  cpu time      0.0210: real time      0.0210
    SETDIJ:  cpu time      0.0019: real time      0.0019
    TRIAL :  cpu time      1.5116: real time      1.5120
    CORREC:  cpu time      0.7419: real time      0.7423
    CHARGE:  cpu time      0.0904: real time      0.0904
    --------------------------------------------
      LOOP:  cpu time      2.3793: real time      2.3973

 eigenvalue-minimisations  :     0
 total energy-change (2. order) :-0.1238292E+02  (-0.1439000E+01)
 number of electron      72.0000000 magnetization 
 augmentation part        0.1838621 magnetization 

 Free energy of the ion-electron system (eV)
  ---------------------------------------------------
  alpha Z        PSCENC =        60.22020652
  Ewald energy   TEWEN  =     -1241.27643166
  -Hartree energ DENC   =     -1915.94600319
  -exchange      EXHF   =         0.00000000
  -V(xc)+E(xc)   XCENC  =       229.66281892
  PAW double counting   =     33880.36485051   -33853.15816529
  entropy T*S    EENTRO =        -0.00000000
  eigenvalues    EBANDS =      -626.00867540
  atomic energy  EATOM  =      3316.27426183
  ---------------------------------------------------
  free energy    TOTEN  =      -149.86713777 eV

  energy without entropy =     -149.86713777  energy(sigma->0) =     -149.86713777


--------------------------------------------------------------------------------------------------------




--------------------------------------- Iteration      1(   8)  ---------------------------------------


    POTLOK:  cpu time      0.0190: real time      0.0190
    SETDIJ:  cpu time      0.0018: real time      0.0018
    TRIAL :  cpu time      1.4283: real time      1.4288
    CORREC:  cpu time      0.7423: real time      0.7427
    CHARGE:  cpu time      0.0900: real time      0.0900
    --------------------------------------------
      LOOP:  cpu time      2.3031: real time      2.3123

 eigenvalue-minimisations  :     0
 total energy-change (2. order) :-0.1445483E+01  (-0.5398582E+00)
 number of electron      72.0000000 magnetization 
 augmentation part        0.1830110 magnetization 

 Free energy of the ion-electron system (eV)
  ---------------------------------------------------
  alpha Z        PSCENC =        60.22020652
  Ewald energy   TEWEN  =     -1241.27643166
  -Hartree energ DENC   =     -1920.89247362
  -exchange      EXHF   =         0.00000000
  -V(xc)+E(xc)   XCENC  =       229.71310616
  PAW double counting   =     33406.36893333   -33378.97348690
  entropy T*S    EENTRO =        -0.00000000
  eigenvalues    EBANDS =      -622.74673692
  atomic energy  EATOM  =      3316.27426183
  ---------------------------------------------------
  free energy    TOTEN  =      -151.31262126 eV

  energy without entropy =     -151.31262126  energy(sigma->0) =     -151.31262126


--------------------------------------------------------------------------------------------------------




--------------------------------------- Iteration      1(   9)  ---------------------------------------


    POTLOK:  cpu time      0.0188: real time      0.0188
    SETDIJ:  cpu time      0.0018: real time      0.0018
    TRIAL :  cpu time      1.4249: real time      1.4258
    CORREC:  cpu time      0.7427: real time      0.7428
    CHARGE:  cpu time      0.0895: real time      0.0900
    --------------------------------------------
      LOOP:  cpu time      2.2917: real time      2.3084

 eigenvalue-minimisations  :     0
 total energy-change (2. order) :-0.5377087E+00  (-0.1665478E+00)
 number of electron      72.0000000 magnetization 
 augmentation part        0.1894037 magnetization 

 Free energy of the ion-electron system (eV)
  ---------------------------------------------------
  alpha Z        PSCENC =        60.22020652
  Ewald energy   TEWEN  =     -1241.27643166
  -Hartree energ DENC   =     -1913.26206676
  -exchange      EXHF   =         0.00000000
  -V(xc)+E(xc)   XCENC  =       229.34009454
  PAW double counting   =     33472.15029846   -33444.67620672
  entropy T*S    EENTRO =        -0.00000000
  eigenvalues    EBANDS =      -630.62048619
  atomic energy  EATOM  =      3316.27426183
  ---------------------------------------------------
  free energy    TOTEN  =      -151.85032999 eV

  energy without entropy =     -151.85032999  energy(sigma->0) =     -151.85032999


--------------------------------------------------------------------------------------------------------




--------------------------------------- Iteration      1(  10)  ---------------------------------------


    POTLOK:  cpu time      0.0187: real time      0.0187
    SETDIJ:  cpu time      0.0019: real time      0.0019
    TRIAL :  cpu time      1.4278: real time      1.4285
    CORREC:  cpu time      0.7425: real time      0.7430
    CHARGE:  cpu time      0.0904: real time      0.0904
    --------------------------------------------
      LOOP:  cpu time      2.2935: real time      2.3115

 eigenvalue-minimisations  :     0
 total energy-change (2. order) :-0.1659156E+00  (-0.4425444E-01)
 number of electron      72.0000000 magnetization 
 augmentation part        0.1919277 magnetization 

 Free energy of the ion-electron system (eV)
  ---------------------------------------------------
  alpha Z        PSCENC =        60.22020652
  Ewald energy   TEWEN  =     -1241.27643166
  -Hartree energ DENC   =     -1908.54211992
  -exchange      EXHF   =         0.00000000
  -V(xc)+E(xc)   XCENC  =       229.09336939
  PAW double counting   =     32678.30328141   -32650.85519070
  entropy T*S    EENTRO =        -0.00000000
  eigenvalues    EBANDS =      -635.23362243
  atomic energy  EATOM  =      3316.27426183
  ---------------------------------------------------
  free energy    TOTEN  =      -152.01624556 eV

  energy without entropy =     -152.01624556  energy(sigma->0) =     -152.01624556


--------------------------------------------------------------------------------------------------------




--------------------------------------- Iteration      1(  11)  ---------------------------------------


    POTLOK:  cpu time      0.0186: real time      0.0186
    SETDIJ:  cpu time      0.0019: real time      0.0019
    TRIAL :  cpu time      1.4278: real time      1.4283
    CORREC:  cpu time      0.7433: real time      0.7439
    CHARGE:  cpu time      0.0903: real time      0.0903
    --------------------------------------------
      LOOP:  cpu time      2.2929: real time      2.3119

 eigenvalue-minimisations  :     0
 total energy-change (2. order) :-0.4422109E-01  (-0.1081186E-01)
 number of electron      72.0000000 magnetization 
 augmentation part        0.1911698 magnetization 

 Free energy of the ion-electron system (eV)
  ---------------------------------------------------
  alpha Z        PSCENC =        60.22020652
  Ewald energy   TEWEN  =     -1241.27643166
  -Hartree energ DENC   =     -1908.05759865
  -exchange      EXHF   =         0.00000000
  -V(xc)+E(xc)   XCENC  =       229.03875426
  PAW double counting   =     32274.69325610   -32247.27742952
  entropy T*S    EENTRO =        -0.00000000
  eigenvalues    EBANDS =      -635.67548553
  atomic energy  EATOM  =      3316.27426183
  ---------------------------------------------------
  free energy    TOTEN  =      -152.06046665 eV

  energy without entropy =     -152.06046665  energy(sigma->0) =     -152.06046665


--------------------------------------------------------------------------------------------------------




--------------------------------------- Iteration      1(  12)  ---------------------------------------


    POTLOK:  cpu time      0.0191: real time      0.0191
    SETDIJ:  cpu time      0.0017: real time      0.0017
    TRIAL :  cpu time      1.4283: real time      1.4293
    CORREC:  cpu time      0.7430: real time      0.7430
    CHARGE:  cpu time      0.0904: real time      0.0904
    --------------------------------------------
      LOOP:  cpu time      2.2954: real time      2.3145

 eigenvalue-minimisations  :     0
 total energy-change (2. order) :-0.1080820E-01  (-0.2684987E-02)
 number of electron      72.0000000 magnetization 
 augmentation part        0.1908126 magnetization 

 Free energy of the ion-electron system (eV)
  ---------------------------------------------------
  alpha Z        PSCENC =        60.22020652
  Ewald energy   TEWEN  =     -1241.27643166
  -Hartree energ DENC   =     -1907.39671405
  -exchange      EXHF   =         0.00000000
  -V(xc)+E(xc)   XCENC  =       228.99127254
  PAW double counting   =     32299.18511803   -32271.76745169
  entropy T*S    EENTRO =        -0.00000000
  eigenvalues    EBANDS =      -636.30153637
  atomic energy  EATOM  =      3316.27426183
  ---------------------------------------------------
  free energy    TOTEN  =      -152.07127485 eV

  energy without entropy =     -152.07127485  energy(sigma->0) =     -152.07127485


--------------------------------------------------------------------------------------------------------




--------------------------------------- Iteration      1(  13)  ---------------------------------------


    POTLOK:  cpu time      0.0187: real time      0.0195
    SETDIJ:  cpu time      0.0018: real time      0.0018
    TRIAL :  cpu time      1.4263: real time      1.4269
    CORREC:  cpu time      0.7424: real time      0.7430
    CHARGE:  cpu time      0.0904: real time      0.0904
    --------------------------------------------
      LOOP:  cpu time      2.2962: real time      2.3116

 eigenvalue-minimisations  :     0
 total energy-change (2. order) :-0.2684188E-02  (-0.7095192E-03)
 number of electron      72.0000000 magnetization 
 augmentation part        0.1907574 magnetization 

 Free energy of the ion-electron system (eV)
  ---------------------------------------------------
  alpha Z        PSCENC =        60.22020652
  Ewald energy   TEWEN  =     -1241.27643166
  -Hartree energ DENC   =     -1907.32040943
  -exchange      EXHF   =         0.00000000
  -V(xc)+E(xc)   XCENC  =       228.98270421
  PAW double counting   =     32354.24171760   -32326.82315292
  entropy T*S    EENTRO =        -0.00000000
  eigenvalues    EBANDS =      -636.37285518
  atomic energy  EATOM  =      3316.27426183
  ---------------------------------------------------
  free energy    TOTEN  =      -152.07395904 eV

  energy without entropy =     -152.07395904  energy(sigma->0) =     -152.07395904


--------------------------------------------------------------------------------------------------------




--------------------------------------- Iteration      1(  14)  ---------------------------------------


    POTLOK:  cpu time      0.0187: real time      0.0187
    SETDIJ:  cpu time      0.0018: real time      0.0017
    TRIAL :  cpu time      1.4376: real time      1.4382
    CORREC:  cpu time      0.7790: real time      0.7796
    CHARGE:  cpu time      0.0904: real time      0.0904
    --------------------------------------------
      LOOP:  cpu time      2.3429: real time      2.3580

 eigenvalue-minimisations  :     0
 total energy-change (2. order) :-0.7100340E-03  (-0.2197115E-03)
 number of electron      72.0000000 magnetization 
 augmentation part        0.1908604 magnetization 

 Free energy of the ion-electron system (eV)
  ---------------------------------------------------
  alpha Z        PSCENC =        60.22020652
  Ewald energy   TEWEN  =     -1241.27643166
  -Hartree energ DENC   =     -1907.27186700
  -exchange      EXHF   =         0.00000000
  -V(xc)+E(xc)   XCENC  =       228.97726711
  PAW double counting   =     32368.81003873   -32341.39038957
  entropy T*S    EENTRO =        -0.00000000
  eigenvalues    EBANDS =      -636.41775503
  atomic energy  EATOM  =      3316.27426183
  ---------------------------------------------------
  free energy    TOTEN  =      -152.07466908 eV

  energy without entropy =     -152.07466908  energy(sigma->0) =     -152.07466908


--------------------------------------------------------------------------------------------------------




--------------------------------------- Iteration      1(  15)  ---------------------------------------


    POTLOK:  cpu time      0.0187: real time      0.0187
    SETDIJ:  cpu time      0.0018: real time      0.0018
    TRIAL :  cpu time      1.4262: real time      1.4272
    CORREC:  cpu time      0.7413: real time      0.7414
    CHARGE:  cpu time      0.0904: real time      0.0905
    --------------------------------------------
      LOOP:  cpu time      2.2904: real time      2.3094

 eigenvalue-minimisations  :     0
 total energy-change (2. order) :-0.2199272E-03  (-0.7370199E-04)
 number of electron      72.0000000 magnetization 
 augmentation part        0.1908682 magnetization 

 Free energy of the ion-electron system (eV)
  ---------------------------------------------------
  alpha Z        PSCENC =        60.22020652
  Ewald energy   TEWEN  =     -1241.27643166
  -Hartree energ DENC   =     -1907.39467548
  -exchange      EXHF   =         0.00000000
  -V(xc)+E(xc)   XCENC  =       228.98361703
  PAW double counting   =     32350.61169032   -32323.19320161
  entropy T*S    EENTRO =        -0.00000000
  eigenvalues    EBANDS =      -636.30035595
  atomic energy  EATOM  =      3316.27426183
  ---------------------------------------------------
  free energy    TOTEN  =      -152.07488900 eV

  energy without entropy =     -152.07488900  energy(sigma->0) =     -152.07488900


--------------------------------------------------------------------------------------------------------




--------------------------------------- Iteration      1(  16)  ---------------------------------------


    POTLOK:  cpu time      0.0186: real time      0.0186
    SETDIJ:  cpu time      0.0018: real time      0.0018
    TRIAL :  cpu time      1.4240: real time      1.4257
    CORREC:  cpu time      0.7425: real time      0.7431
    CHARGE:  cpu time      0.0905: real time      0.0905
    --------------------------------------------
      LOOP:  cpu time      2.2924: real time      2.3092

 eigenvalue-minimisations  :     0
 total energy-change (2. order) :-0.7407464E-04  (-0.2584560E-04)
 number of electron      72.0000000 magnetization 
 augmentation part        0.1908549 magnetization 

 Free energy of the ion-electron system (eV)
  ---------------------------------------------------
  alpha Z        PSCENC =        60.22020652
  Ewald energy   TEWEN  =     -1241.27643166
  -Hartree energ DENC   =     -1907.38312634
  -exchange      EXHF   =         0.00000000
  -V(xc)+E(xc)   XCENC  =       228.98291093
  PAW double counting   =     32340.75230240   -32313.33350446
  entropy T*S    EENTRO =        -0.00000000
  eigenvalues    EBANDS =      -636.31158229
  atomic energy  EATOM  =      3316.27426183
  ---------------------------------------------------
  free energy    TOTEN  =      -152.07496308 eV

  energy without entropy =     -152.07496308  energy(sigma->0) =     -152.07496308


--------------------------------------------------------------------------------------------------------




--------------------------------------- Iteration      1(  17)  ---------------------------------------


    POTLOK:  cpu time      0.0185: real time      0.0185
    SETDIJ:  cpu time      0.0018: real time      0.0018
    TRIAL :  cpu time      1.4276: real time      1.4282
    CORREC:  cpu time      0.7410: real time      0.7418
    CHARGE:  cpu time      0.0906: real time      0.0906
    --------------------------------------------
      LOOP:  cpu time      2.2937: real time      2.3112

 eigenvalue-minimisations  :     0
 total energy-change (2. order) :-0.2573845E-04  (-0.8564795E-05)
 number of electron      72.0000000 magnetization 
 augmentation part        0.1907892 magnetization 

 Free energy of the ion-electron system (eV)
  ---------------------------------------------------
  alpha Z        PSCENC =        60.22020652
  Ewald energy   TEWEN  =     -1241.27643166
  -Hartree energ DENC   =     -1907.42158876
  -exchange      EXHF   =         0.00000000
  -V(xc)+E(xc)   XCENC  =       228.98489671
  PAW double counting   =     32344.67762177   -32317.25874457
  entropy T*S    EENTRO =        -0.00000000
  eigenvalues    EBANDS =      -636.27521064
  atomic energy  EATOM  =      3316.27426183
  ---------------------------------------------------
  free energy    TOTEN  =      -152.07498882 eV

  energy without entropy =     -152.07498882  energy(sigma->0) =     -152.07498882


--------------------------------------------------------------------------------------------------------




--------------------------------------- Iteration      1(  18)  ---------------------------------------


    POTLOK:  cpu time      0.0189: real time      0.0189
    SETDIJ:  cpu time      0.0017: real time      0.0017
    TRIAL :  cpu time      1.4283: real time      1.4294
    CORREC:  cpu time      0.7414: real time      0.7414
    CHARGE:  cpu time      0.0906: real time      0.0906
    --------------------------------------------
      LOOP:  cpu time      2.2953: real time      2.3119

 eigenvalue-minimisations  :     0
 total energy-change (2. order) :-0.8287912E-05  (-0.2616838E-05)
 number of electron      72.0000000 magnetization 
 augmentation part        0.1907692 magnetization 

 Free energy of the ion-electron system (eV)
  ---------------------------------------------------
  alpha Z        PSCENC =        60.22020652
  Ewald energy   TEWEN  =     -1241.27643166
  -Hartree energ DENC   =     -1907.42462606
  -exchange      EXHF   =         0.00000000
  -V(xc)+E(xc)   XCENC  =       228.98534572
  PAW double counting   =     32352.20625070   -32324.78700922
  entropy T*S    EENTRO =        -0.00000000
  eigenvalues    EBANDS =      -636.27299492
  atomic energy  EATOM  =      3316.27426183
  ---------------------------------------------------
  free energy    TOTEN  =      -152.07499710 eV

  energy without entropy =     -152.07499710  energy(sigma->0) =     -152.07499710


--------------------------------------------------------------------------------------------------------




--------------------------------------- Iteration      1(  19)  ---------------------------------------


    POTLOK:  cpu time      0.0187: real time      0.0187
    SETDIJ:  cpu time      0.0018: real time      0.0018
    TRIAL :  cpu time      1.4338: real time      1.4349
    CORREC:  cpu time      0.7412: real time      0.7417
    CHARGE:  cpu time      0.0905: real time      0.0905
    --------------------------------------------
      LOOP:  cpu time      2.2975: real time      2.3177

 eigenvalue-minimisations  :     0
 total energy-change (2. order) :-0.2554680E-05  (-0.7602949E-06)
 number of electron      72.0000000 magnetization 
 augmentation part        0.1907693 magnetization 

 Free energy of the ion-electron system (eV)
  ---------------------------------------------------
  alpha Z        PSCENC =        60.22020652
  Ewald energy   TEWEN  =     -1241.27643166
  -Hartree energ DENC   =     -1907.42127367
  -exchange      EXHF   =         0.00000000
  -V(xc)+E(xc)   XCENC  =       228.98514588
  PAW double counting   =     32354.24331587   -32326.82401430
  entropy T*S    EENTRO =        -0.00000000
[...]
     41       5.4124      0.00000
     42       5.5289      0.00000
     43       6.6215      0.00000
     44       6.6238      0.00000
     45       7.5220      0.00000
     46       7.6459      0.00000
     47       7.8516      0.00000
     48       8.1397      0.00000
     49       8.5452      0.00000
     50       8.7143      0.00000
     51       8.8062      0.00000
     52       9.1087      0.00000

 k-point    50 :       0.1667    0.5000    0.5000
  band No.  band energies     occupation 
      1     -23.0847      2.00000
      2     -23.0707      2.00000
      3     -20.7461      2.00000
      4     -20.6745      2.00000
      5     -17.9698      2.00000
      6     -17.9220      2.00000
      7     -14.4214      2.00000
      8     -14.3779      2.00000
      9     -11.4828      2.00000
     10     -11.3942      2.00000
     11      -9.8845      2.00000
     12      -9.7560      2.00000
     13      -9.1768      2.00000
     14      -9.1185      2.00000
     15      -8.3128      2.00000
     16      -7.7041      2.00000
     17      -7.5078      2.00000
     18      -7.3654      2.00000
     19      -6.7551      2.00000
     20      -6.0039      2.00000
     21      -5.8758      2.00000
     22      -5.8120      2.00000
     23      -5.3705      2.00000
     24      -5.1434      2.00000
     25      -4.8674      2.00000
     26      -4.6618      2.00000
     27      -4.2347      2.00000
     28      -4.1690      2.00000
     29      -3.8955      2.00000
     30      -3.8628      2.00000
     31      -2.7574      2.00000
     32      -2.4157      2.00000
     33      -2.3028      2.00000
     34      -2.1384      2.00000
     35      -1.8691      2.00000
     36      -1.8295      2.00000
     37       4.2109      0.00000
     38       4.4705      0.00000
     39       4.9542      0.00000
     40       5.2699      0.00000
     41       5.6031      0.00000
     42       5.6750      0.00000
     43       6.5264      0.00000
     44       6.6089      0.00000
     45       7.2786      0.00000
     46       7.6549      0.00000
     47       7.7518      0.00000
     48       8.0387      0.00000
     49       8.4543      0.00000
     50       8.5929      0.00000
     51       8.8820      0.00000
     52       9.1983      0.00000

 k-point    51 :       0.3333    0.5000    0.5000
  band No.  band energies     occupation 
      1     -23.0747      2.00000
      2     -23.0588      2.00000
      3     -20.7351      2.00000
      4     -20.6738      2.00000
      5     -18.0532      2.00000
      6     -17.9828      2.00000
      7     -14.4183      2.00000
      8     -14.3825      2.00000
      9     -11.4018      2.00000
     10     -11.3296      2.00000
     11      -9.7397      2.00000
     12      -9.6556      2.00000
     13      -9.0187      2.00000
     14      -8.9534      2.00000
     15      -8.2692      2.00000
     16      -7.6545      2.00000
     17      -7.5239      2.00000
     18      -7.3082      2.00000
     19      -7.0444      2.00000
     20      -6.3687      2.00000
     21      -5.9142      2.00000
     22      -5.8235      2.00000
     23      -5.4663      2.00000
     24      -5.2927      2.00000
     25      -4.9250      2.00000
     26      -4.6491      2.00000
     27      -4.2098      2.00000
     28      -4.1709      2.00000
     29      -3.8700      2.00000
     30      -3.7832      2.00000
     31      -2.7444      2.00000
     32      -2.5160      2.00000
     33      -2.4044      2.00000
     34      -2.1799      2.00000
     35      -1.9220      2.00000
     36      -1.8826      2.00000
     37       4.3507      0.00000
     38       4.5595      0.00000
     39       5.0754      0.00000
     40       5.5392      0.00000
     41       5.8888      0.00000
     42       6.1143      0.00000
     43       6.3898      0.00000
     44       6.5382      0.00000
     45       7.0141      0.00000
     46       7.1891      0.00000
     47       7.4498      0.00000
     48       8.0846      0.00000
     49       8.3183      0.00000
     50       8.5561      0.00000
     51       8.6535      0.00000
     52       9.0518      0.00000

 k-point    52 :       0.5000    0.5000    0.5000
  band No.  band energies     occupation 
      1     -23.0696      2.00000
      2     -23.0529      2.00000
      3     -20.7292      2.00000
      4     -20.6737      2.00000
      5     -18.0920      2.00000
      6     -18.0149      2.00000
      7     -14.4117      2.00000
      8     -14.3897      2.00000
      9     -11.3351      2.00000
     10     -11.3332      2.00000
     11      -9.6831      2.00000
     12      -9.6170      2.00000
     13      -8.9128      2.00000
     14      -8.8599      2.00000
     15      -8.0350      2.00000
     16      -7.7197      2.00000
     17      -7.5402      2.00000
     18      -7.3118      2.00000
     19      -7.1804      2.00000
     20      -6.6829      2.00000
     21      -5.9277      2.00000
     22      -5.8357      2.00000
     23      -5.5028      2.00000
     24      -5.3653      2.00000
     25      -4.9235      2.00000
     26      -4.6571      2.00000
     27      -4.1847      2.00000
     28      -4.1845      2.00000
     29      -3.8578      2.00000
     30      -3.7378      2.00000
     31      -2.7120      2.00000
     32      -2.5812      2.00000
     33      -2.4325      2.00000
     34      -2.2053      2.00000
     35      -1.9784      2.00000
     36      -1.8950      2.00000
     37       4.4035      0.00000
     38       4.6110      0.00000
     39       5.2201      0.00000
     40       5.6395      0.00000
     41       5.9493      0.00000
     42       6.2541      0.00000
     43       6.5917      0.00000
     44       6.6679      0.00000
     45       6.7844      0.00000
     46       6.9082      0.00000
     47       7.3170      0.00000
     48       7.8104      0.00000
     49       8.2941      0.00000
     50       8.4741      0.00000
     51       8.7174      0.00000
     52       9.5406      0.00000


--------------------------------------------------------------------------------------------------------


 soft charge-density along one line, spin component           1
         0         1         2         3         4         5         6         7         8         9
 total charge-density along one line

 pseudopotential strength for first ion, spin component:           1
 12.530  21.082  -0.002  -0.001  -0.002  -0.003  -0.001  -0.003
 21.082  35.468  -0.003  -0.001  -0.003  -0.006  -0.002  -0.005
 -0.002  -0.003  -3.105  -0.000  -0.000  -5.559  -0.000  -0.000
 -0.001  -0.001  -0.000  -3.104  -0.000  -0.000  -5.559  -0.000
 -0.002  -0.003  -0.000  -0.000  -3.104  -0.000  -0.000  -5.559
 -0.003  -0.006  -5.559  -0.000  -0.000  -9.933  -0.001  -0.000
 -0.001  -0.002  -0.000  -5.559  -0.000  -0.001  -9.933  -0.000
 -0.003  -0.005  -0.000  -0.000  -5.559  -0.000  -0.000  -9.933
 total augmentation occupancy for first ion, spin component:           1
  7.529  -2.579  -0.060  -0.032  -0.057   0.047   0.024   0.037
 -2.579   0.896   0.058   0.029   0.046  -0.035  -0.018  -0.025
 -0.060   0.058   5.832   0.043   0.050  -1.875  -0.037  -0.037
 -0.032   0.029   0.043   5.767   0.028  -0.037  -1.821  -0.022
 -0.057   0.046   0.050   0.028   5.770  -0.037  -0.022  -1.824
  0.047  -0.035  -1.875  -0.037  -0.037   0.608   0.021   0.021
  0.024  -0.018  -0.037  -1.821  -0.022   0.021   0.579   0.012
  0.037  -0.025  -0.037  -0.022  -1.824   0.021   0.012   0.579


------------------------ aborting loop because EDIFF is reached ----------------------------------------


    FORLOC:  cpu time      0.0037: real time      0.0037
    FORNL :  cpu time      0.7856: real time      0.7862
    FORCOR:  cpu time      0.0233: real time      0.0234
    OFIELD:  cpu time      0.0026: real time      0.0029

  Hirshfeld charges:
            ion         q(e)     
   ------------------------------
      1     C       -0.11721858
      2     C       -0.11722017
      3     C        0.00364362
      4     C        0.00363863
      5     C        0.21282939
      6     C        0.21280619
      7     N       -0.15712292
      8     N       -0.15708410
      9     O       -0.09158280
     10     O       -0.09160755
     11     O       -0.21663831
     12     O       -0.21669233
     13     H        0.04199407
     14     H        0.04198832
     15     H        0.03250610
     16     H        0.03250289
     17     H        0.03268162
     18     H        0.03268062
     19     H        0.03429470
     20     H        0.03429299
     21     H        0.03013520
     22     H        0.03012949
     23     H        0.09918326
     24     H        0.09919158
     25     H        0.09531854
     26     H        0.09534957

  Atomic reference data used in the T-S method for vdW correction:
            C6at              R0at           ALPHAat      REFSTATE
            (au)              (au)            (au)                
   ---------------------------------------------------------------
   C          46.600          3.590         12.000         0
   N          24.200          3.345          7.400         0
   O          15.600          3.194          5.400         0
   H           6.500          3.099          4.500         0

  Tkatchenko/Scheffler method for vdW energy calculation
  ---------------------------------------------------------------------------------------------

  Parameters of vdW forcefield:
            C6ts              R0ts           ALPHAts        RELVOL
            (au)              (au)            (au)                
   ---------------------------------------------------------------
   C          30.274          3.341          9.672          0.80601345
   C          30.275          3.341          9.672          0.80601965
   C          31.601          3.365          9.882          0.82348280
   C          31.601          3.365          9.882          0.82349061
   C          32.380          3.379         10.003          0.83357962
   C          32.381          3.379         10.003          0.83358205
   N          17.110          3.157          6.222          0.84083752
   N          17.109          3.157          6.222          0.84082836
   O          12.303          3.070          4.795          0.88804477
   O          12.303          3.070          4.796          0.88805616
   O          12.538          3.079          4.841          0.89649801
   O          12.538          3.079          4.841          0.89651619
   H           3.155          2.747          3.135          0.69667621
   H           3.155          2.747          3.135          0.69668042
   H           3.391          2.781          3.250          0.72232967
   H           3.391          2.781          3.250          0.72232943
   H           3.419          2.784          3.264          0.72524652
   H           3.419          2.784          3.264          0.72525613
   H           3.374          2.778          3.242          0.72045037
   H           3.374          2.778          3.242          0.72045775
   H           3.630          2.812          3.363          0.74731233
   H           3.630          2.812          3.363          0.74732241
   H           3.637          2.813          3.366          0.74804619
   H           3.637          2.813          3.366          0.74804787
   H           3.685          2.819          3.388          0.75296654
   H           3.685          2.819          3.388          0.75295650

  vdW correction parametrized for the method pbe       

  IVDW =   2
  VDW_RADIUS =    50.000 A
  VDW_IDAMPF =  0
  VDW_S6 =     1.000
  VDW_SR =     0.940
  VDW_D =    20.000
  LVDW_ONECELL = F F F
  LVDW_SAMETYPE T T T T
  LVDW_EWALD = F

  Number of pair interactions contributing to vdW energy:  738960
  Edisp (eV):   -1.22200
    FORVDW:  cpu time      9.5223: real time      9.5277

 VOLUME and BASIS-vectors are now :
 -----------------------------------------------------------------------------
  energy-cutoff  :     1000.00
  volume of cell :      248.77
      direct lattice vectors                 reciprocal lattice vectors
     5.051000000  0.000000000  0.000000000     0.197980598 -0.046983007  0.045053615
     1.618830000  6.821550000  0.000000000    -0.000000000  0.146594249  0.021882239
    -1.898810000 -1.077750000  7.220100000     0.000000000  0.000000000  0.138502237

  length of vectors
     5.051000000  7.011002423  7.543001292     0.208407169  0.148218441  0.138502237


 FORCES acting on ions:
    Electron-Ion                     Ewald-Force                    Non-Local-Force
 -----------------------------------------------------------------------------------------------
   -.898E+01 -.881E+02 -.548E+02   0.100E+02 0.892E+02 0.552E+02   -.111E+01 -.127E+01 -.493E+00
   0.899E+01 0.881E+02 0.548E+02   -.100E+02 -.892E+02 -.552E+02   0.111E+01 0.127E+01 0.492E+00
   0.104E+03 -.615E+02 -.377E+02   -.114E+03 0.679E+02 0.389E+02   0.101E+02 -.659E+01 -.123E+01
   -.104E+03 0.615E+02 0.377E+02   0.114E+03 -.679E+02 -.389E+02   -.101E+02 0.659E+01 0.123E+01
   -.409E+02 0.289E+02 -.168E+02   0.397E+02 -.326E+02 0.143E+02   0.137E+01 0.389E+01 0.270E+01
   0.409E+02 -.289E+02 0.168E+02   -.397E+02 0.326E+02 -.143E+02   -.137E+01 -.389E+01 -.270E+01
   -.116E+03 0.105E+03 -.381E+02   0.120E+03 -.111E+03 0.426E+02   -.446E+01 0.647E+01 -.453E+01
   0.116E+03 -.105E+03 0.381E+02   -.120E+03 0.111E+03 -.426E+02   0.446E+01 -.646E+01 0.453E+01
   -.148E+03 -.930E+02 -.106E+03   0.189E+03 0.110E+03 0.121E+03   -.405E+02 -.165E+02 -.146E+02
   0.148E+03 0.930E+02 0.106E+03   -.189E+03 -.110E+03 -.121E+03   0.405E+02 0.166E+02 0.146E+02
   0.202E+03 0.717E+02 0.524E+02   -.246E+03 -.830E+02 -.666E+02   0.447E+02 0.113E+02 0.143E+02
   -.202E+03 -.717E+02 -.524E+02   0.246E+03 0.830E+02 0.666E+02   -.447E+02 -.113E+02 -.143E+02
   0.372E+02 -.363E+02 -.184E+02   -.413E+02 0.398E+02 0.196E+02   0.409E+01 -.350E+01 -.119E+01
   -.373E+02 0.363E+02 0.184E+02   0.413E+02 -.398E+02 -.196E+02   -.409E+01 0.350E+01 0.119E+01
   -.283E+02 -.527E+01 -.359E+02   0.310E+02 0.415E+01 0.406E+02   -.269E+01 0.114E+01 -.469E+01
   0.283E+02 0.527E+01 0.359E+02   -.310E+02 -.415E+01 -.406E+02   0.269E+01 -.114E+01 0.469E+01
   -.316E+02 -.277E+02 0.108E+02   0.351E+02 0.303E+02 -.141E+02   -.353E+01 -.265E+01 0.337E+01
   0.316E+02 0.277E+02 -.108E+02   -.351E+02 -.303E+02 0.141E+02   0.353E+01 0.265E+01 -.337E+01
   0.486E+02 0.143E+02 -.378E+02   -.523E+02 -.170E+02 0.412E+02   0.370E+01 0.269E+01 -.342E+01
   -.486E+02 -.143E+02 0.378E+02   0.523E+02 0.170E+02 -.412E+02   -.370E+01 -.269E+01 0.342E+01
   0.340E+02 -.188E+02 0.316E+02   -.367E+02 0.199E+02 -.366E+02   0.277E+01 -.114E+01 0.499E+01
   -.340E+02 0.188E+02 -.316E+02   0.367E+02 -.199E+02 0.366E+02   -.277E+01 0.114E+01 -.499E+01
   -.520E+02 -.127E+02 -.214E+02   0.588E+02 0.153E+02 0.226E+02   -.684E+01 -.259E+01 -.120E+01
   0.520E+02 0.127E+02 0.214E+02   -.588E+02 -.153E+02 -.226E+02   0.684E+01 0.259E+01 0.120E+01
   -.588E+01 0.480E+02 0.196E+02   0.517E+01 -.541E+02 -.235E+02   0.690E+00 0.609E+01 0.391E+01
   0.588E+01 -.480E+02 -.196E+02   -.518E+01 0.541E+02 0.235E+02   -.689E+00 -.609E+01 -.390E+01
 -----------------------------------------------------------------------------------------------
   0.157E-02 -.633E-02 -.526E-02   -.124E-13 0.995E-13 0.604E-13   -.125E-02 0.644E-02 0.537E-02


 POSITION                                       TOTAL-FORCE (eV/Angst)
 -----------------------------------------------------------------------------------
      4.94844      5.03869      2.64154        -0.024371     -0.045147     -0.037030
     -0.17729      0.70496      4.57866         0.024294      0.044428      0.036605
      4.39308      3.78968      1.99505         0.149321     -0.057288      0.002935
      0.37806      1.95399      5.22510        -0.149933      0.057440     -0.002366
      0.20252      1.74281      1.10683        -0.003660      0.051382      0.025854
      4.56847      4.00089      6.11328         0.012274     -0.055404     -0.026919
      1.28874      0.96879      0.95087        -0.049906      0.061799      0.037070
      3.48237      4.77480      6.26928         0.045148     -0.053839     -0.033161
      0.48145      2.91027      1.73336        -0.094919     -0.019861     -0.034043
      4.28966      2.83336      5.48678         0.093784      0.020187      0.034104
      4.10717      1.42487      0.74293         0.023753     -0.028317     -0.013449
      0.66392      4.31883      6.47703        -0.025564      0.028724      0.013575
      4.12460      5.72648      2.87648         0.032535     -0.009303     -0.002170
      0.64658      0.01720      4.34376        -0.032453      0.009091      0.002076
      0.42570      4.80066      3.57369        -0.015952      0.027657     -0.026400
      4.34549      0.94291      3.64645         0.015943     -0.027563      0.026782
      5.64429      5.55594      1.96830        -0.019268     -0.001198      0.034768
     -0.87312      0.18765      5.25189         0.019470      0.001660     -0.035002
      3.69175      3.26461      2.65942        -0.005549      0.015200     -0.008017
      1.07940      2.47903      4.56073         0.005579     -0.014991      0.007912
      3.88355      4.00550      1.04758        -0.013473      0.003960      0.004129
      0.88758      1.73816      6.17258         0.013485     -0.003807     -0.004152
      2.22576      1.33808      1.11945         0.009768     -0.017648     -0.015502
      2.54533      4.40553      6.10072        -0.010070      0.017595      0.015352
      1.18581      0.11386      0.39366        -0.000785     -0.011693     -0.000102
      3.58527      5.62994      6.82644         0.000547      0.006936     -0.002849
 -----------------------------------------------------------------------------------
    total drift:                                0.000322      0.000104      0.000111


--------------------------------------------------------------------------------------------------------



  FREE ENERGIE OF THE ION-ELECTRON SYSTEM (eV)
  ---------------------------------------------------
  free  energy   TOTEN  =      -153.29700515 eV

  energy  without entropy=     -153.29700515  energy(sigma->0) =     -153.29700515



--------------------------------------------------------------------------------------------------------


    POTLOK:  cpu time      0.0315: real time      0.0315


--------------------------------------------------------------------------------------------------------


 stress matrix after NEB project (eV)
     -1.49678      0.00061      0.03517
      0.00061     -1.41883      0.28907
      0.03517      0.28907     -1.76331
  FORCES: max atom, RMS     0.160577    0.066764
  FORCE total and by dimension    0.340429    0.149933
  Stress total and by dimension    2.744500    1.763309
     LOOP+:  cpu time     68.7203: real time     69.1985
    4ORBIT:  cpu time      0.0000: real time      0.0000

 total amount of memory used by VASP MPI-rank0    59959. kBytes
=======================================================================

   base      :      30000. kBytes
   nonl-proj :       7852. kBytes
   fftplans  :       1147. kBytes
   grid      :       2138. kBytes
   one-center:          3. kBytes
   wavefun   :      18819. kBytes

  
  
 General timing and accounting informations for this job:
 ========================================================
  
                  Total CPU time used (sec):       81.352
                            User time (sec):       79.532
                          System time (sec):        1.820
                         Elapsed time (sec):       83.198
  
                   Maximum memory used (kb):      137668.
                   Average memory used (kb):          N/A
  
                          Minor page faults:        21678
                          Major page faults:          747
                 Voluntary context switches:         3325
