 vasp.6.4.1 05Apr23 (build Jun  6 2023 14:36:51) complex                         
 executed on        HPECrayEX_GCC date 2024.08.20  16:55:06
 running  128 mpi-ranks, with    1 threads/rank, on    1 nodes
 distrk:  each k-point on  128 cores,    1 groups
 distr:  one band on NCORE=  32 cores,    4 groups


--------------------------------------------------------------------------------------------------------


 INCAR:
   ALGO = Conjugate
   NPAR = 4
   ISMEAR = 0
   SIGMA = 0.01
   PREC = Accurate
   EDIFF = 1E-7
   ENCUT = 1000
   ISIF = 0
   GGA = MK
   PARAM1 = 0.1234
   PARAM2 = 1.0000
   LUSE_VDW = .TRUE.
   AGGAC = 0.0000
   LASPH = .TRUE.
   SYMPREC = 1E-7
   LWAVE = .FALSE.
   LCHARGE = .FALSE.

 POTCAR:    PAW_PBE C_h 06Feb2004                 
 POTCAR:    PAW_PBE N_h 06Feb2004                 
 POTCAR:    PAW_PBE O_h 06Feb2004                 
 POTCAR:    PAW_PBE H_h 06Feb2004                 
 -----------------------------------------------------------------------------
|                                                                             |
|               ----> ADVICE to this user running VASP <----                  |
|                                                                             |
|     You have switched on vdW-DFT.                                           |
|     This routine was written and supplied by Jiri Klimes. We recommend      |
|     that you carefully read and cite the following publications:            |
|       J. Klimes, D.R. Bowler, A. Michelides                                 |
|          J. Phys.: Cond Matt. 22 022201 (2010)                              |
|       J. Klimes, D.R. Bowler, A. Michelides                                 |
|          Phys. Rev. B. 83, 195131 (2011)                                    |
|     and references therein.                                                 |
|                                                                             |
 -----------------------------------------------------------------------------

 POTCAR:    PAW_PBE C_h 06Feb2004                 
   VRHFIN =C: s2p2                                                                                  
   LEXCH  = PE                                                                                      
   EATOM  =   147.1560 eV,   10.8157 Ry                                                             
                                                                                                    
   TITEL  = PAW_PBE C_h 06Feb2004                                                                   
   LULTRA =        F    use ultrasoft PP ?                                                          
   IUNSCR =        1    unscreen: 0-lin 1-nonlin 2-no                                               
   RPACOR =    0.800    partial core radius                                                         
   POMASS =   12.011; ZVAL   =    4.000    mass and valenz                                          
   RCORE  =    1.100    outmost cutoff radius                                                       
   RWIGS  =    1.630; RWIGS  =    0.863    wigner-seitz radius (au A)                               
   ENMAX  =  700.000; ENMIN  =  500.000 eV                                                          
   ICORE  =        2    local potential                                                             
   LCOR   =        T    correct aug charges                                                         
   LPAW   =        T    paw PP                                                                      
   EAUG   =  946.768                                                                                
   DEXC   =    0.000                                                                                
   RMAX   =    1.128    core radius for proj-oper                                                   
   RAUG   =    1.300    factor for augmentation sphere                                              
   RDEP   =    1.162    radius for radial grids                                                     
   RDEPT  =    1.088    core radius for aug-charge                                                  
                                                                                                    
   Atomic configuration                                                                             
    4 entries                                                                                       
     n  l   j            E        occ.                                                              
     1  0  0.50      -273.3789   2.0000                                                             
     2  0  0.50       -13.7508   2.0000                                                             
     2  1  0.50        -5.2854   2.0000                                                             
     3  2  1.50        -5.4423   0.0000                                                             
   Description                                                                                      
     l       E           TYP  RCUT    TYP  RCUT                                                     
     0    -13.7508458     23  1.100                                                                 
     0     -8.2022199     23  1.100                                                                 
     1     -5.2854383     23  1.100                                                                 
     1      1.1560700     23  1.100                                                                 
     2     -5.4423304      7  1.100                                                                 
  local pseudopotential read in
  partial core-charges read in
  partial kinetic energy density read in
  atomic valenz-charges read in
  non local Contribution for L=           0  read in
    real space projection operators read in
  non local Contribution for L=           0  read in
    real space projection operators read in
  non local Contribution for L=           1  read in
    real space projection operators read in
  non local Contribution for L=           1  read in
    real space projection operators read in
    PAW grid and wavefunctions read in

   number of l-projection  operators is LMAX  =           4
   number of lm-projection operators is LMMAX =           8

 POTCAR:    PAW_PBE N_h 06Feb2004                 
   VRHFIN =N: s2p3                                                                                  
   LEXCH  = PE                                                                                      
   EATOM  =   264.5486 eV,   19.4438 Ry                                                             
                                                                                                    
   TITEL  = PAW_PBE N_h 06Feb2004                                                                   
   LULTRA =        F    use ultrasoft PP ?                                                          
   IUNSCR =        1    unscreen: 0-lin 1-nonlin 2-no                                               
   RPACOR =    0.800    partial core radius                                                         
   POMASS =   14.001; ZVAL   =    5.000    mass and valenz                                          
   RCORE  =    1.100    outmost cutoff radius                                                       
   RWIGS  =    1.480; RWIGS  =    0.783    wigner-seitz radius (au A)                               
   ENMAX  =  700.000; ENMIN  =  500.000 eV                                                          
   ICORE  =        2    local potential                                                             
   LCOR   =        T    correct aug charges                                                         
   LPAW   =        T    paw PP                                                                      
   EAUG   =  904.640                                                                                
   DEXC   =    0.000                                                                                
   RMAX   =    1.127    core radius for proj-oper                                                   
   RAUG   =    1.300    factor for augmentation sphere                                              
   RDEP   =    1.115    radius for radial grids                                                     
   RDEPT  =    1.106    core radius for aug-charge                                                  
                                                                                                    
   Atomic configuration                                                                             
    4 entries                                                                                       
     n  l   j            E        occ.                                                              
     1  0  0.50      -384.7179   2.0000                                                             
     2  0  0.50       -18.5828   2.0000                                                             
     2  1  0.50        -7.0898   3.0000                                                             
     3  2  1.50        -6.8029   0.0000                                                             
   Description                                                                                      
     l       E           TYP  RCUT    TYP  RCUT                                                     
     0    -18.5828117     23  1.100                                                                 
     0    -15.0750597     23  1.100                                                                 
     1     -7.0897851     23  1.100                                                                 
     1     -1.9663412     23  1.100                                                                 
     2     -6.8029130      7  1.100                                                                 
  local pseudopotential read in
  partial core-charges read in
  partial kinetic energy density read in
  kinetic energy density of atom read in
  atomic valenz-charges read in
  non local Contribution for L=           0  read in
    real space projection operators read in
  non local Contribution for L=           0  read in
    real space projection operators read in
  non local Contribution for L=           1  read in
    real space projection operators read in
  non local Contribution for L=           1  read in
    real space projection operators read in
    PAW grid and wavefunctions read in

   number of l-projection  operators is LMAX  =           4
   number of lm-projection operators is LMMAX =           8

 POTCAR:    PAW_PBE O_h 06Feb2004                 
   VRHFIN =O: s2p4                                                                                  
   LEXCH  = PE                                                                                      
   EATOM  =   432.3788 eV,   31.7789 Ry                                                             
                                                                                                    
   TITEL  = PAW_PBE O_h 06Feb2004                                                                   
   LULTRA =        F    use ultrasoft PP ?                                                          
   IUNSCR =        1    unscreen: 0-lin 1-nonlin 2-no                                               
   RPACOR =    0.800    partial core radius                                                         
   POMASS =   16.000; ZVAL   =    6.000    mass and valenz                                          
   RCORE  =    1.100    outmost cutoff radius                                                       
   RWIGS  =    1.400; RWIGS  =    0.741    wigner-seitz radius (au A)                               
   ENMAX  =  700.000; ENMIN  =  500.000 eV                                                          
   ICORE  =        2    local potential                                                             
   LCOR   =        T    correct aug charges                                                         
   LPAW   =        T    paw PP                                                                      
   EAUG   =  888.804                                                                                
   DEXC   =    0.000                                                                                
   RMAX   =    1.128    core radius for proj-oper                                                   
   RAUG   =    1.300    factor for augmentation sphere                                              
   RDEP   =    1.125    radius for radial grids                                                     
   RDEPT  =    1.088    core radius for aug-charge                                                  
                                                                                                    
   Atomic configuration                                                                             
    4 entries                                                                                       
     n  l   j            E        occ.                                                              
     1  0  0.50      -514.6923   2.0000                                                             
     2  0  0.50       -23.9615   2.0000                                                             
     2  1  0.50        -9.0305   4.0000                                                             
     3  2  1.50        -9.5241   0.0000                                                             
   Description                                                                                      
     l       E           TYP  RCUT    TYP  RCUT                                                     
     0    -23.9615319     23  1.100                                                                 
     0    -25.3221145     23  1.100                                                                 
     1     -9.0304911     23  1.100                                                                 
     1     -5.4802209     23  1.100                                                                 
     2     -9.5240782      7  1.100                                                                 
  local pseudopotential read in
  partial core-charges read in
  partial kinetic energy density read in
  atomic valenz-charges read in
  non local Contribution for L=           0  read in
    real space projection operators read in
  non local Contribution for L=           0  read in
    real space projection operators read in
  non local Contribution for L=           1  read in
    real space projection operators read in
  non local Contribution for L=           1  read in
    real space projection operators read in
    PAW grid and wavefunctions read in

   number of l-projection  operators is LMAX  =           4
   number of lm-projection operators is LMMAX =           8

 POTCAR:    PAW_PBE H_h 06Feb2004                 
   VRHFIN =H: ultrasoft test                                                                        
   LEXCH  = PE                                                                                      
   EATOM  =    12.4884 eV,    0.9179 Ry                                                             
                                                                                                    
   TITEL  = PAW_PBE H_h 06Feb2004                                                                   
   LULTRA =        F    use ultrasoft PP ?                                                          
   IUNSCR =        0    unscreen: 0-lin 1-nonlin 2-no                                               
   RPACOR =    0.000    partial core radius                                                         
   POMASS =    1.000; ZVAL   =    1.000    mass and valenz                                          
   RCORE  =    0.800    outmost cutoff radius                                                       
   RWIGS  =    0.700; RWIGS  =    0.370    wigner-seitz radius (au A)                               
   ENMAX  =  700.000; ENMIN  =  350.000 eV                                                          
   RCLOC  =    0.701    cutoff for local pot                                                        
   LCOR   =        T    correct aug charges                                                         
   LPAW   =        T    paw PP                                                                      
   EAUG   = 1000.000                                                                                
   RMAX   =    0.819    core radius for proj-oper                                                   
   RAUG   =    1.000    factor for augmentation sphere                                              
   RDEP   =    0.817    radius for radial grids                                                     
   RDEPT  =    0.817    core radius for aug-charge                                                  
                                                                                                    
   Atomic configuration                                                                             
    2 entries                                                                                       
     n  l   j            E        occ.                                                              
     1  0  0.50        -6.4927   1.0000                                                             
     2  1  0.50        -3.4015   0.0000                                                             
   Description                                                                                      
     l       E           TYP  RCUT    TYP  RCUT                                                     
     0     -6.4927493     23  0.800                                                                 
     0      6.8029130     23  0.800                                                                 
     1     -6.8029130     23  0.800                                                                 
  local pseudopotential read in
  atomic valenz-charges read in
  non local Contribution for L=           0  read in
    real space projection operators read in
  non local Contribution for L=           0  read in
    real space projection operators read in
  non local Contribution for L=           1  read in
    real space projection operators read in
    PAW grid and wavefunctions read in

   number of l-projection  operators is LMAX  =           3
   number of lm-projection operators is LMMAX =           5

 -----------------------------------------------------------------------------
|                                                                             |
|               ----> ADVICE to this user running VASP <----                  |
|                                                                             |
|     You have a (more or less) 'large supercell' and for larger cells it     |
|     might be more efficient to use real-space projection operators.         |
|     Therefore, try LREAL= Auto in the INCAR file.                           |
|     Mind: For very accurate calculation, you might also keep the            |
|     reciprocal projection scheme (i.e. LREAL=.FALSE.).                      |
|                                                                             |
 -----------------------------------------------------------------------------

 -----------------------------------------------------------------------------
|                                                                             |
|               ----> ADVICE to this user running VASP <----                  |
|                                                                             |
|     You enforced a specific xc type in the INCAR file but a different       |
|     type was found in the POTCAR file.                                      |
|     I HOPE YOU KNOW WHAT YOU ARE DOING!                                     |
|                                                                             |
 -----------------------------------------------------------------------------

  PAW_PBE C_h 06Feb2004                 :
 energy of atom  1       EATOM= -147.1560
 kinetic energy error for atom=    0.0031 (will be added to EATOM!!)
  PAW_PBE N_h 06Feb2004                 :
 energy of atom  2       EATOM= -264.5486
 kinetic energy error for atom=    0.0081 (will be added to EATOM!!)
  PAW_PBE O_h 06Feb2004                 :
 energy of atom  3       EATOM= -432.3788
 kinetic energy error for atom=    0.0171 (will be added to EATOM!!)
  PAW_PBE H_h 06Feb2004                 :
 energy of atom  4       EATOM=  -12.4884
 kinetic energy error for atom=    0.0006 (will be added to EATOM!!)


 POSCAR:  C  N  O  H
  positions in cartesian coordinates
  No initial velocities read in
 exchange correlation table for  LEXCH =       43
   RHO(1)=    0.500       N(1)  =     2000
   RHO(2)=  100.500       N(2)  =     4000

 VTST: version 4.1, (05/19/21)

 CHAIN: initializing optimizer
 
 OPT: Using VASP Dynamics algorithm
 CHAIN: Read ICHAIN            0

 POSCAR:  C  N  O  H
  positions in cartesian coordinates
  No initial velocities read in



--------------------------------------------------------------------------------------------------------


 ion  position               nearest neighbor table
   1  0.862  0.796  0.366-  15 1.10  17 1.10  13 1.10   3 1.51
   2  0.138  0.204  0.634-  16 1.10  18 1.10  14 1.10   4 1.51
   3  0.782  0.599  0.276-  21 1.10  19 1.10   9 1.46   1 1.51
   4  0.218  0.401  0.724-  22 1.10  20 1.10  10 1.46   2 1.51
   5  0.008  0.280  0.153-  11 1.24   7 1.34   9 1.35
   6  0.992  0.720  0.847-  12 1.24   8 1.34  10 1.35
   7  0.252  0.163  0.132-  23 1.02  25 1.03   5 1.34
   8  0.748  0.837  0.868-  24 1.02  26 1.03   6 1.34
   9  0.037  0.465  0.240-   5 1.35   3 1.46
  10  0.963  0.535  0.760-   6 1.35   4 1.46
  11  0.780  0.225  0.103-   5 1.24
  12  0.220  0.775  0.897-   6 1.24
  13  0.677  0.902  0.398-   1 1.10
  14  0.323  0.098  0.602-   2 1.10
  15  0.020  0.782  0.495-   1 1.10
  16  0.980  0.218  0.505-   2 1.10
  17  0.945  0.858  0.273-   1 1.10
  18  0.055  0.142  0.727-   2 1.10
  19  0.697  0.537  0.368-   3 1.10
  20  0.303  0.463  0.632-   4 1.10
  21  0.628  0.610  0.145-   3 1.10
  22  0.372  0.390  0.855-   4 1.10
  23  0.428  0.221  0.155-   7 1.02
  24  0.572  0.779  0.845-   8 1.02
  25  0.247  0.025  0.055-   7 1.03
  26  0.753  0.975  0.945-   8 1.03

  LATTYP: Found a triclinic cell.
 ALAT       =     5.0510000000
 B/A-ratio  =     2.1551506031
 C/A-ratio  =     2.0563667669
 COS(alpha) =     0.0114247620
 COS(beta)  =     0.4593389698
 COS(gamma) =     0.7792973105
  
  Lattice vectors:
  
 A1 = (  -5.0510000000,   0.0000000000,   0.0000000000)
 A2 = (  -8.4831700000,   6.8215500000,   0.0000000000)
 A3 = (  -4.7710200000,  -5.7438000000,  -7.2201000000)


Analysis of symmetry for initial positions (statically):
=====================================================================
 Subroutine PRICEL returns:
 Original cell was already a primitive cell.
 

 Routine SETGRP: Setting up the symmetry group for a 
 triclinic supercell.


 Subroutine GETGRP returns: Found  1 space group operations
 (whereof  1 operations were pure point group operations)
 out of a pool of  2 trial point group operations.


The static configuration has the point symmetry C_1 .


Analysis of symmetry for dynamics (positions and initial velocities):
=====================================================================
 Subroutine PRICEL returns:
 Original cell was already a primitive cell.
 

 Routine SETGRP: Setting up the symmetry group for a 
 triclinic supercell.


 Subroutine GETGRP returns: Found  1 space group operations
 (whereof  1 operations were pure point group operations)
 out of a pool of  2 trial point group operations.


The dynamic configuration has the point symmetry C_1 .


 Subroutine INISYM returns: Found  1 space group operations
 (whereof  1 operations are pure point group operations),
 and found     1 'primitive' translations


----------------------------------------------------------------------------------------

                                     Primitive cell                                     

  volume of cell :     248.7732

  direct lattice vectors                    reciprocal lattice vectors
     5.051000000  0.000000000  0.000000000     0.197980598 -0.046983007  0.045053615
     1.618830000  6.821550000  0.000000000    -0.000000000  0.146594249  0.021882239
    -1.898810000 -1.077750000  7.220100000     0.000000000  0.000000000  0.138502237

  length of vectors
     5.051000000  7.011002423  7.543001292     0.208407169  0.148218441  0.138502237

  position of ions in fractional coordinates (direct lattice)
     0.861972589  0.796445238  0.365859022
     0.138064667  0.203535027  0.634154269
     0.781578986  0.599200900  0.276319201
     0.218453392  0.400780539  0.723688095
     0.008079648  0.279705926  0.153298677
     0.991920352  0.720280294  0.846703236
     0.252468354  0.162825871  0.131697782
     0.747561775  0.837144037  0.868309565
     0.036678920  0.464558963  0.240074308
     0.963348325  0.535416572  0.759931229
     0.779667646  0.225134261  0.102897307
     0.220345002  0.774846955  0.897083248
     0.677140016  0.902413565  0.398399101
     0.322905155  0.097572764  0.601620467
     0.019738651  0.781948789  0.494963713
     0.980308668  0.218017261  0.505041485
     0.945103312  0.857539709  0.272613991
     0.054939063  0.142431463  0.727397938
     0.697329547  0.536766822  0.368335189
     0.302705369  0.463210509  0.631671772
     0.627873694  0.610106943  0.145092024
     0.372157345  0.389873471  0.854915837
     0.428225287  0.220651294  0.155046496
     0.571800867  0.779323034  0.844962680
     0.247154217  0.025305469  0.054523041
     0.752858552  0.974694531  0.945476959

  ion indices of the primitive-cell ions
   primitive index   ion index
                 1           1
                 2           2
                 3           3
                 4           4
                 5           5
                 6           6
                 7           7
                 8           8
                 9           9
                10          10
                11          11
                12          12
                13          13
                14          14
                15          15
                16          16
                17          17
                18          18
                19          19
                20          20
                21          21
                22          22
                23          23
                24          24
                25          25
                26          26

----------------------------------------------------------------------------------------



 KPOINTS: auto                                    

Automatic generation of k-mesh.
 Grid dimensions read from file:
 generate k-points for:    6    4    4

 Generating k-lattice:

  Cartesian coordinates                     Fractional coordinates (reciprocal lattice)
     0.032996766 -0.007830501  0.007508936     0.166666667 -0.000000000  0.000000000
    -0.000000000  0.036648562  0.005470560     0.000000000  0.250000000  0.000000000
     0.000000000  0.000000000  0.034625559     0.000000000  0.000000000  0.250000000

  Length of vectors
     0.034734528  0.037054610  0.034625559

  Shift w.r.t. Gamma in fractional coordinates (k-lattice)
     0.000000000  0.000000000  0.000000000

 
 Subroutine IBZKPT returns following result:
 ===========================================
 
 Found     52 irreducible k-points:
 
 Following reciprocal coordinates:
            Coordinates               Weight
  0.000000  0.000000  0.000000      1.000000
  0.166667  0.000000  0.000000      2.000000
  0.333333  0.000000  0.000000      2.000000
  0.500000  0.000000  0.000000      1.000000
  0.000000  0.250000  0.000000      2.000000
  0.166667  0.250000  0.000000      2.000000
  0.333333  0.250000  0.000000      2.000000
  0.500000  0.250000  0.000000      2.000000
 -0.333333  0.250000  0.000000      2.000000
 -0.166667  0.250000  0.000000      2.000000
  0.000000  0.500000  0.000000      1.000000
  0.166667  0.500000  0.000000      2.000000
  0.333333  0.500000  0.000000      2.000000
  0.500000  0.500000  0.000000      1.000000
  0.000000  0.000000  0.250000      2.000000
  0.166667  0.000000  0.250000      2.000000
  0.333333  0.000000  0.250000      2.000000
  0.500000  0.000000  0.250000      2.000000
 -0.333333  0.000000  0.250000      2.000000
 -0.166667  0.000000  0.250000      2.000000
  0.000000  0.250000  0.250000      2.000000
  0.166667  0.250000  0.250000      2.000000
  0.333333  0.250000  0.250000      2.000000
  0.500000  0.250000  0.250000      2.000000
 -0.333333  0.250000  0.250000      2.000000
 -0.166667  0.250000  0.250000      2.000000
  0.000000  0.500000  0.250000      2.000000
  0.166667  0.500000  0.250000      2.000000
  0.333333  0.500000  0.250000      2.000000
  0.500000  0.500000  0.250000      2.000000
 -0.333333  0.500000  0.250000      2.000000
 -0.166667  0.500000  0.250000      2.000000
  0.000000 -0.250000  0.250000      2.000000
  0.166667 -0.250000  0.250000      2.000000
  0.333333 -0.250000  0.250000      2.000000
  0.500000 -0.250000  0.250000      2.000000
 -0.333333 -0.250000  0.250000      2.000000
 -0.166667 -0.250000  0.250000      2.000000
  0.000000  0.000000  0.500000      1.000000
  0.166667  0.000000  0.500000      2.000000
  0.333333  0.000000  0.500000      2.000000
  0.500000  0.000000  0.500000      1.000000
  0.000000  0.250000  0.500000      2.000000
  0.166667  0.250000  0.500000      2.000000
  0.333333  0.250000  0.500000      2.000000
  0.500000  0.250000  0.500000      2.000000
 -0.333333  0.250000  0.500000      2.000000
 -0.166667  0.250000  0.500000      2.000000
  0.000000  0.500000  0.500000      1.000000
  0.166667  0.500000  0.500000      2.000000
  0.333333  0.500000  0.500000      2.000000
  0.500000  0.500000  0.500000      1.000000
 
 Following cartesian coordinates:
            Coordinates               Weight
  0.000000  0.000000  0.000000      1.000000
  0.032997 -0.007831  0.007509      2.000000
  0.065994 -0.015661  0.015018      2.000000
  0.098990 -0.023492  0.022527      1.000000
  0.000000  0.036649  0.005471      2.000000
  0.032997  0.028818  0.012979      2.000000
  0.065994  0.020988  0.020488      2.000000
  0.098990  0.013157  0.027997      2.000000
 -0.065994  0.052310 -0.009547      2.000000
 -0.032997  0.044479 -0.002038      2.000000
  0.000000  0.073297  0.010941      1.000000
  0.032997  0.065467  0.018450      2.000000
  0.065994  0.057636  0.025959      2.000000
  0.098990  0.049806  0.033468      1.000000
  0.000000  0.000000  0.034626      2.000000
  0.032997 -0.007831  0.042134      2.000000
  0.065994 -0.015661  0.049643      2.000000
  0.098990 -0.023492  0.057152      2.000000
 -0.065994  0.015661  0.019608      2.000000
 -0.032997  0.007831  0.027117      2.000000
  0.000000  0.036649  0.040096      2.000000
  0.032997  0.028818  0.047605      2.000000
  0.065994  0.020988  0.055114      2.000000
  0.098990  0.013157  0.062623      2.000000
 -0.065994  0.052310  0.025078      2.000000
 -0.032997  0.044479  0.032587      2.000000
  0.000000  0.073297  0.045567      2.000000
  0.032997  0.065467  0.053076      2.000000
  0.065994  0.057636  0.060585      2.000000
  0.098990  0.049806  0.068093      2.000000
 -0.065994  0.088958  0.030549      2.000000
 -0.032997  0.081128  0.038058      2.000000
  0.000000 -0.036649  0.029155      2.000000
  0.032997 -0.044479  0.036664      2.000000
  0.065994 -0.052310  0.044173      2.000000
  0.098990 -0.060140  0.051682      2.000000
 -0.065994 -0.020988  0.014137      2.000000
 -0.032997 -0.028818  0.021646      2.000000
  0.000000  0.000000  0.069251      1.000000
  0.032997 -0.007831  0.076760      2.000000
  0.065994 -0.015661  0.084269      2.000000
  0.098990 -0.023492  0.091778      1.000000
  0.000000  0.036649  0.074722      2.000000
  0.032997  0.028818  0.082231      2.000000
  0.065994  0.020988  0.089740      2.000000
  0.098990  0.013157  0.097248      2.000000
 -0.065994  0.052310  0.059704      2.000000
 -0.032997  0.044479  0.067213      2.000000
  0.000000  0.073297  0.080192      1.000000
  0.032997  0.065467  0.087701      2.000000
  0.065994  0.057636  0.095210      2.000000
  0.098990  0.049806  0.102719      1.000000
 


--------------------------------------------------------------------------------------------------------




 Dimension of arrays:
   k-points           NKPTS =     52   k-points in BZ     NKDIM =     52   number of bands    NBANDS=     52
   number of dos      NEDOS =    301   number of ions     NIONS =     26
   non local maximal  LDIM  =      4   non local SUM 2l+1 LMDIM =      8
   total plane-waves  NPLWV = 311040
   max r-space proj   IRMAX =      1   max aug-charges    IRDMAX=   9317
   dimension x,y,z NGX =    54 NGY =   72 NGZ =   80
   dimension x,y,z NGXF=   108 NGYF=  144 NGZF=  160
   support grid    NGXF=   108 NGYF=  144 NGZF=  160
   ions per type =               6   2   4  14
   NGX,Y,Z   is equivalent  to a cutoff of  17.77, 17.07, 17.63 a.u.
   NGXF,Y,Z  is equivalent  to a cutoff of  35.55, 34.15, 35.26 a.u.

 SYSTEM =  unknown system                          
 POSCAR =   C  N  O  H                             

 Startparameter for this run:
   NWRITE =      2    write-flag & timer
   PREC   = accura    normal or accurate (medium, high low for compatibility)
   ISTART =      0    job   : 0-new  1-cont  2-samecut
   ICHARG =      2    charge: 1-file 2-atom 10-const
   ISPIN  =      1    spin polarized calculation?
   LNONCOLLINEAR =      F non collinear calculations
   LSORBIT =      F    spin-orbit coupling
   INIWAV =      1    electr: 0-lowe 1-rand  2-diag
   LASPH  =      T    aspherical Exc in radial PAW
 Electronic Relaxation 1
   ENCUT  = 1000.0 eV  73.50 Ry    8.57 a.u.  13.02 18.08 19.45*2*pi/ulx,y,z
   ENINI  = 1000.0     initial cutoff
   ENAUG  = 1000.0 eV  augmentation charge cutoff
   NELM   =     60;   NELMIN=  2; NELMDL= -5     # of ELM steps 
   EDIFF  = 0.1E-06   stopping-criterion for ELM
   LREAL  =      F    real-space projection
   NLSPLINE    = F    spline interpolate recip. space projectors
   LCOMPAT=      F    compatible to vasp.4.4
   GGA_COMPAT  = T    GGA compatible to vasp.4.4-vasp.4.6
   LMAXPAW     = -100 max onsite density
   LMAXMIX     =    2 max onsite mixed and CHGCAR
   VOSKOWN=      0    Vosko Wilk Nusair interpolation
   ROPT   =    0.00000   0.00000   0.00000   0.00000
 Ionic relaxation
   EDIFFG = 0.1E-05   stopping-criterion for IOM
   NSW    =      0    number of steps for IOM
   NBLOCK =      1;   KBLOCK =      1    inner block; outer block 
   IBRION =     -1    ionic relax: 0-MD 1-quasi-New 2-CG
   NFREE  =      0    steps in history (QN), initial steepest desc. (CG)
   ISIF   =      0    stress and relaxation
   IWAVPR =     10    prediction:  0-non 1-charg 2-wave 3-comb
   ISYM   =      2    0-nonsym 1-usesym 2-fastsym
   LCORR  =      T    Harris-Foulkes like correction to forces

   POTIM  = 0.5000    time-step for ionic-motion
   TEIN   =    0.0    initial temperature
   TEBEG  =    0.0;   TEEND  =   0.0 temperature during run
   SMASS  =  -3.00    Nose mass-parameter (am)
   estimated Nose-frequenzy (Omega)   =  0.10E-29 period in steps = 0.13E+47 mass=  -0.583E-27a.u.
   SCALEE = 1.0000    scale energy and forces
   NPACO  =    256;   APACO  = 10.0  distance and # of slots for P.C.
   PSTRESS=    0.0 pullay stress

  Mass of Ions in am
   POMASS =  12.01 14.00 16.00  1.00
  Ionic Valenz
   ZVAL   =   4.00  5.00  6.00  1.00
  Atomic Wigner-Seitz radii
   RWIGS  =  -1.00 -1.00 -1.00 -1.00
  virtual crystal weights 
   VCA    =   1.00  1.00  1.00  1.00
   NELECT =      72.0000    total number of electrons
   NUPDOWN=      -1.0000    fix difference up-down

 DOS related values:
   EMIN   =  10.00;   EMAX   =-10.00  energy-range for DOS
   EFERMI =   0.00;   METHOD = LEGACY      
   ISMEAR =     0;   SIGMA  =   0.01  broadening in eV -4-tet -1-fermi 0-gaus

 Electronic relaxation 2 (details)
   IALGO  =     58    algorithm
   LDIAG  =      T    sub-space diagonalisation (order eigenvalues)
   LSUBROT=      F    optimize rotation matrix (better conditioning)
   TURBO    =      0    0=normal 1=particle mesh
   IRESTART =      0    0=no restart 2=restart with 2 vectors
   NREBOOT  =      0    no. of reboots
   NMIN     =      0    reboot dimension
   EREF     =   0.00    reference energy to select bands
   IMIX   =      4    mixing-type and parameters
     AMIX     =   0.40;   BMIX     =  1.00
     AMIX_MAG =   1.60;   BMIX_MAG =  1.00
     AMIN     =   0.10
     WC   =   100.;   INIMIX=   1;  MIXPRE=   1;  MAXMIX= -45

 Intra band minimization:
   WEIMIN = 0.0000     energy-eigenvalue tresh-hold
   EBREAK =  0.48E-09  absolut break condition
   DEPER  =   0.30     relativ break condition  

   TIME   =   0.40     timestep for ELM

  volume/ion in A,a.u.               =       9.57        64.57
  Fermi-wavevector in a.u.,A,eV,Ry     =   1.082890  2.046366 15.954890  1.172651
  Thomas-Fermi vector in A             =   2.218943

 Write flags
   LWAVE        =      F    write WAVECAR
   LDOWNSAMPLE  =      F    k-point downsampling of WAVECAR
   LCHARG       =      T    write CHGCAR
   LVTOT        =      F    write LOCPOT, total local potential
   LVHAR        =      F    write LOCPOT, Hartree potential only
   LELF         =      F    write electronic localiz. function (ELF)
   LORBIT       =      0    0 simple, 1 ext, 2 COOP (PROOUT), +10 PAW based schemes


 Dipole corrections
   LMONO  =      F    monopole corrections only (constant potential shift)
   LDIPOL =      F    correct potential (dipole corrections)
   IDIPOL =      0    1-x, 2-y, 3-z, 4-all directions 
   EPSILON=  1.0000000 bulk dielectric constant

 Exchange correlation treatment:
   GGA     =    MK    GGA type
   LEXCH   =    43    internal setting for exchange type
   LIBXC   =     F    Libxc                    
   VOSKOWN =     0    Vosko Wilk Nusair interpolation
   LHFCALC =     F    Hartree Fock is set to
   LHFONE  =     F    Hartree Fock one center treatment
   AEXX    =    0.0000 exact exchange contribution

 vdW DFT:
   LUSE_VDW   =     T    switch on vdW DFT
   IVDW_NL    =     1    kernel type
   LSPIN_VDW  =     F    use spin-polarized vdW DFT
   Zab_VDW    =-.8491    correlation parameter
   PARAM1     =0.1234
   PARAM2     =1.0000
   PARAM3     =0.0000
   -- rVV10 --
   BPARAM     = 6.3000
   CPARAM     = 0.0093

 Linear response parameters
   LEPSILON=     F    determine dielectric tensor
   LRPA    =     F    only Hartree local field effects (RPA)
   LNABLA  =     F    use nabla operator in PAW spheres
   LVEL    =     F    velocity operator in full k-point grid
   CSHIFT  =0.1000    complex shift for real part using Kramers Kronig
   OMEGAMAX=  -1.0    maximum frequency
   DEG_THRESHOLD= 0.2000000E-02 threshold for treating states as degnerate
   RTIME   =   -0.100 relaxation time in fs
  (WPLASMAI=    0.000 imaginary part of plasma frequency in eV, 0.658/RTIME)
   DFIELD  = 0.0000000 0.0000000 0.0000000 field for delta impulse in time

  Optional k-point grid parameters
   LKPOINTS_OPT  =     F    use optional k-point grid
   KPOINTS_OPT_MODE=     1    mode for optional k-point grid

 Orbital magnetization related:
   ORBITALMAG=     F  switch on orbital magnetization
   LCHIMAG   =     F  perturbation theory with respect to B field
   DQ        =  0.001000  dq finite difference perturbation B field
   LLRAUG    =     F  two centre corrections for induced B field
   LBONE     =     F  B-component reconstruction in AE one-centre
   LVGVCALC  =     T  calculate vGv susceptibility
   LVGVAPPL  =     F  apply vGv susceptibility instead of pGv for G=0

 Random number generation:
   RANDOM_GENERATOR = DEFAULT
   PCG_SEED         = not used


--------------------------------------------------------------------------------------------------------


 Static calculation
 charge density and potential will be updated during run
 non-spin polarized calculation
 Conjugate gradient for all bands (Freysoldt, et al. PRB 79, 241103 (2009))
 preconditioned conjugated gradient                                        
 perform sub-space diagonalisation
    before iterative eigenvector-optimisation
 modified Broyden-mixing scheme, WC =      100.0
 initial mixing is a Kerker type mixing with AMIX =  0.4000 and BMIX =      1.0000
 Hartree-type preconditioning will be used
 using additional bands           16
 reciprocal scheme for non local part
 use partial core corrections
 no Harris-corrections to forces 
 use gradient corrections 
 use of overlap-Matrix (Vanderbilt PP)
 Gauss-broadening in eV      SIGMA  =   0.01


--------------------------------------------------------------------------------------------------------


  energy-cutoff  :     1000.00
  volume of cell :      248.77
      direct lattice vectors                 reciprocal lattice vectors
     5.051000000  0.000000000  0.000000000     0.197980598 -0.046983007  0.045053615
     1.618830000  6.821550000  0.000000000    -0.000000000  0.146594249  0.021882239
    -1.898810000 -1.077750000  7.220100000     0.000000000  0.000000000  0.138502237

  length of vectors
     5.051000000  7.011002423  7.543001292     0.208407169  0.148218441  0.138502237



 k-points in units of 2pi/SCALE and weight: auto                                    
   0.00000000  0.00000000  0.00000000       0.010
   0.03299677 -0.00783050  0.00750894       0.021
   0.06599353 -0.01566100  0.01501787       0.021
   0.09899030 -0.02349150  0.02252681       0.010
   0.00000000  0.03664856  0.00547056       0.021
   0.03299677  0.02881806  0.01297950       0.021
   0.06599353  0.02098756  0.02048843       0.021
   0.09899030  0.01315706  0.02799737       0.021
  -0.06599353  0.05230956 -0.00954731       0.021
  -0.03299677  0.04447906 -0.00203838       0.021
   0.00000000  0.07329712  0.01094112       0.010
   0.03299677  0.06546662  0.01845006       0.021
   0.06599353  0.05763612  0.02595899       0.021
   0.09899030  0.04980562  0.03346793       0.010
   0.00000000  0.00000000  0.03462556       0.021
   0.03299677 -0.00783050  0.04213449       0.021
   0.06599353 -0.01566100  0.04964343       0.021
   0.09899030 -0.02349150  0.05715237       0.021
  -0.06599353  0.01566100  0.01960769       0.021
  -0.03299677  0.00783050  0.02711662       0.021
   0.00000000  0.03664856  0.04009612       0.021
   0.03299677  0.02881806  0.04760505       0.021
   0.06599353  0.02098756  0.05511399       0.021
   0.09899030  0.01315706  0.06262293       0.021
  -0.06599353  0.05230956  0.02507825       0.021
  -0.03299677  0.04447906  0.03258718       0.021
   0.00000000  0.07329712  0.04556668       0.021
   0.03299677  0.06546662  0.05307561       0.021
   0.06599353  0.05763612  0.06058455       0.021
   0.09899030  0.04980562  0.06809349       0.021
  -0.06599353  0.08895813  0.03054881       0.021
  -0.03299677  0.08112763  0.03805774       0.021
   0.00000000 -0.03664856  0.02915500       0.021
   0.03299677 -0.04447906  0.03666394       0.021
   0.06599353 -0.05230956  0.04417287       0.021
   0.09899030 -0.06014007  0.05168181       0.021
  -0.06599353 -0.02098756  0.01413713       0.021
  -0.03299677 -0.02881806  0.02164606       0.021
   0.00000000  0.00000000  0.06925112       0.010
   0.03299677 -0.00783050  0.07676005       0.021
   0.06599353 -0.01566100  0.08426899       0.021
   0.09899030 -0.02349150  0.09177793       0.010
   0.00000000  0.03664856  0.07472168       0.021
   0.03299677  0.02881806  0.08223061       0.021
   0.06599353  0.02098756  0.08973955       0.021
   0.09899030  0.01315706  0.09724849       0.021
  -0.06599353  0.05230956  0.05970381       0.021
  -0.03299677  0.04447906  0.06721274       0.021
   0.00000000  0.07329712  0.08019224       0.010
   0.03299677  0.06546662  0.08770117       0.021
   0.06599353  0.05763612  0.09521011       0.021
   0.09899030  0.04980562  0.10271905       0.010

 k-points in reciprocal lattice and weights: auto                                    
   0.00000000  0.00000000  0.00000000       0.010
   0.16666667  0.00000000  0.00000000       0.021
   0.33333333  0.00000000  0.00000000       0.021
   0.50000000  0.00000000  0.00000000       0.010
   0.00000000  0.25000000  0.00000000       0.021
   0.16666667  0.25000000  0.00000000       0.021
   0.33333333  0.25000000  0.00000000       0.021
   0.50000000  0.25000000  0.00000000       0.021
  -0.33333333  0.25000000  0.00000000       0.021
  -0.16666667  0.25000000  0.00000000       0.021
   0.00000000  0.50000000  0.00000000       0.010
   0.16666667  0.50000000  0.00000000       0.021
   0.33333333  0.50000000  0.00000000       0.021
   0.50000000  0.50000000  0.00000000       0.010
   0.00000000  0.00000000  0.25000000       0.021
   0.16666667  0.00000000  0.25000000       0.021
   0.33333333  0.00000000  0.25000000       0.021
   0.50000000  0.00000000  0.25000000       0.021
  -0.33333333  0.00000000  0.25000000       0.021
  -0.16666667  0.00000000  0.25000000       0.021
   0.00000000  0.25000000  0.25000000       0.021
   0.16666667  0.25000000  0.25000000       0.021
   0.33333333  0.25000000  0.25000000       0.021
   0.50000000  0.25000000  0.25000000       0.021
  -0.33333333  0.25000000  0.25000000       0.021
  -0.16666667  0.25000000  0.25000000       0.021
   0.00000000  0.50000000  0.25000000       0.021
   0.16666667  0.50000000  0.25000000       0.021
   0.33333333  0.50000000  0.25000000       0.021
   0.50000000  0.50000000  0.25000000       0.021
  -0.33333333  0.50000000  0.25000000       0.021
  -0.16666667  0.50000000  0.25000000       0.021
   0.00000000 -0.25000000  0.25000000       0.021
   0.16666667 -0.25000000  0.25000000       0.021
   0.33333333 -0.25000000  0.25000000       0.021
   0.50000000 -0.25000000  0.25000000       0.021
  -0.33333333 -0.25000000  0.25000000       0.021
  -0.16666667 -0.25000000  0.25000000       0.021
   0.00000000  0.00000000  0.50000000       0.010
   0.16666667  0.00000000  0.50000000       0.021
   0.33333333  0.00000000  0.50000000       0.021
   0.50000000  0.00000000  0.50000000       0.010
   0.00000000  0.25000000  0.50000000       0.021
   0.16666667  0.25000000  0.50000000       0.021
   0.33333333  0.25000000  0.50000000       0.021
   0.50000000  0.25000000  0.50000000       0.021
  -0.33333333  0.25000000  0.50000000       0.021
  -0.16666667  0.25000000  0.50000000       0.021
   0.00000000  0.50000000  0.50000000       0.010
   0.16666667  0.50000000  0.50000000       0.021
   0.33333333  0.50000000  0.50000000       0.021
   0.50000000  0.50000000  0.50000000       0.010

 position of ions in fractional coordinates (direct lattice) 
   0.86197259  0.79644524  0.36585902
   0.13806467  0.20353503  0.63415427
   0.78157899  0.59920090  0.27631920
   0.21845339  0.40078054  0.72368810
   0.00807965  0.27970593  0.15329868
   0.99192035  0.72028029  0.84670324
   0.25246835  0.16282587  0.13169778
   0.74756178  0.83714404  0.86830956
   0.03667892  0.46455896  0.24007431
   0.96334832  0.53541657  0.75993123
   0.77966765  0.22513426  0.10289731
   0.22034500  0.77484696  0.89708325
   0.67714002  0.90241356  0.39839910
   0.32290515  0.09757276  0.60162047
   0.01973865  0.78194879  0.49496371
   0.98030867  0.21801726  0.50504149
   0.94510331  0.85753971  0.27261399
   0.05493906  0.14243146  0.72739794
   0.69732955  0.53676682  0.36833519
   0.30270537  0.46321051  0.63167177
   0.62787369  0.61010694  0.14509202
   0.37215734  0.38987347  0.85491584
   0.42822529  0.22065129  0.15504650
   0.57180087  0.77932303  0.84496268
   0.24715422  0.02530547  0.05452304
   0.75285855  0.97469453  0.94547696

 position of ions in cartesian coordinates  (Angst):
   4.94843622  5.03868645  2.64153873
  -0.17728522  0.70496460  4.57865724
   4.39308219  3.78967588  1.99505226
   0.37805745  1.95398964  5.22510042
   0.20252159  1.74281031  1.10683178
   4.56847247  4.00089363  6.11328203
   1.28873600  0.96878754  0.95087115
   3.48237352  4.77479927  6.26928189
   0.48145171  2.91027211  1.73336051
   4.28965578  2.83335504  5.48677947
   4.10717294  1.42486705  0.74292884
   0.66391746  4.31882578  6.47703076
   4.12460418  5.72648462  2.87648135
   0.64658470  0.01720103  4.34375993
   0.42570004  4.80065562  3.57368751
   4.34549414  0.94290719  3.64645003
   5.64428566  5.55594027  1.96830028
  -0.87312095  0.18765022  5.25188585
   3.69174724  3.26460847  2.65941690
   1.07939921  2.47902940  4.56073336
   3.88354726  4.00550209  1.04757892
   0.88758288  1.73815583  6.17257783
   2.22575902  1.33808247  1.11945121
   2.54533410  4.40553251  6.10071505
   1.18581231  0.11386032  0.39366181
   3.58527219  5.62993968  6.82643819



--------------------------------------------------------------------------------------------------------


 k-point   1 :   0.0000 0.0000 0.0000  plane waves:   17851
 k-point   2 :   0.1667 0.0000 0.0000  plane waves:   17854
 k-point   3 :   0.3333 0.0000 0.0000  plane waves:   17868
 k-point   4 :   0.5000 0.0000 0.0000  plane waves:   17838
 k-point   5 :   0.0000 0.2500 0.0000  plane waves:   17836
 k-point   6 :   0.1667 0.2500 0.0000  plane waves:   17859
 k-point   7 :   0.3333 0.2500 0.0000  plane waves:   17872
 k-point   8 :   0.5000 0.2500 0.0000  plane waves:   17882
 k-point   9 :  -0.3333 0.2500 0.0000  plane waves:   17869
 k-point  10 :  -0.1667 0.2500 0.0000  plane waves:   17859
 k-point  11 :   0.0000 0.5000 0.0000  plane waves:   17850
 k-point  12 :   0.1667 0.5000 0.0000  plane waves:   17878
 k-point  13 :   0.3333 0.5000 0.0000  plane waves:   17889
 k-point  14 :   0.5000 0.5000 0.0000  plane waves:   17900
 k-point  15 :   0.0000 0.0000 0.2500  plane waves:   17825
 k-point  16 :   0.1667 0.0000 0.2500  plane waves:   17860
 k-point  17 :   0.3333 0.0000 0.2500  plane waves:   17860
 k-point  18 :   0.5000 0.0000 0.2500  plane waves:   17861
 k-point  19 :  -0.3333 0.0000 0.2500  plane waves:   17861
 k-point  20 :  -0.1667 0.0000 0.2500  plane waves:   17861
 k-point  21 :   0.0000 0.2500 0.2500  plane waves:   17856
 k-point  22 :   0.1667 0.2500 0.2500  plane waves:   17843
 k-point  23 :   0.3333 0.2500 0.2500  plane waves:   17859
 k-point  24 :   0.5000 0.2500 0.2500  plane waves:   17878
 k-point  25 :  -0.3333 0.2500 0.2500  plane waves:   17870
 k-point  26 :  -0.1667 0.2500 0.2500  plane waves:   17879
 k-point  27 :   0.0000 0.5000 0.2500  plane waves:   17856
 k-point  28 :   0.1667 0.5000 0.2500  plane waves:   17837
 k-point  29 :   0.3333 0.5000 0.2500  plane waves:   17867
 k-point  30 :   0.5000 0.5000 0.2500  plane waves:   17901
 k-point  31 :  -0.3333 0.5000 0.2500  plane waves:   17882
 k-point  32 :  -0.1667 0.5000 0.2500  plane waves:   17881
 k-point  33 :   0.0000-0.2500 0.2500  plane waves:   17846
 k-point  34 :   0.1667-0.2500 0.2500  plane waves:   17862
 k-point  35 :   0.3333-0.2500 0.2500  plane waves:   17873
 k-point  36 :   0.5000-0.2500 0.2500  plane waves:   17877
 k-point  37 :  -0.3333-0.2500 0.2500  plane waves:   17903
 k-point  38 :  -0.1667-0.2500 0.2500  plane waves:   17878
 k-point  39 :   0.0000 0.0000 0.5000  plane waves:   17824
 k-point  40 :   0.1667 0.0000 0.5000  plane waves:   17851
 k-point  41 :   0.3333 0.0000 0.5000  plane waves:   17848
 k-point  42 :   0.5000 0.0000 0.5000  plane waves:   17840
 k-point  43 :   0.0000 0.2500 0.5000  plane waves:   17833
 k-point  44 :   0.1667 0.2500 0.5000  plane waves:   17854
 k-point  45 :   0.3333 0.2500 0.5000  plane waves:   17882
 k-point  46 :   0.5000 0.2500 0.5000  plane waves:   17867
 k-point  47 :  -0.3333 0.2500 0.5000  plane waves:   17865
 k-point  48 :  -0.1667 0.2500 0.5000  plane waves:   17856
 k-point  49 :   0.0000 0.5000 0.5000  plane waves:   17818
 k-point  50 :   0.1667 0.5000 0.5000  plane waves:   17842
 k-point  51 :   0.3333 0.5000 0.5000  plane waves:   17873
 k-point  52 :   0.5000 0.5000 0.5000  plane waves:   17868

 maximum and minimum number of plane-waves per node :       577      532

 maximum number of plane-waves:     17903
 maximum index in each direction: 
   IXMAX=   13   IYMAX=   18   IZMAX=   19
   IXMIN=  -13   IYMIN=  -18   IZMIN=  -19


 parallel 3D FFT for wavefunctions:
    minimum data exchange during FFTs selected (reduces bandwidth)
 parallel 3D FFT for charge:
    minimum data exchange during FFTs selected (reduces bandwidth)


 total amount of memory used by VASP MPI-rank0    59959. kBytes
=======================================================================

   base      :      30000. kBytes
   nonl-proj :       7852. kBytes
   fftplans  :       1147. kBytes
   grid      :       2138. kBytes
   one-center:          3. kBytes
   wavefun   :      18819. kBytes

     INWAV:  cpu time      0.0000: real time      0.0000
 Broyden mixing: mesh for mixing (old mesh)
   NGX = 27   NGY = 37   NGZ = 39
  (NGX  =108   NGY  =144   NGZ  =160)
  gives a total of  38961 points

 initial charge density was supplied:
 charge density of overlapping atoms calculated
 number of electron      72.0000000 magnetization 
 keeping initial charge density in first step


--------------------------------------------------------------------------------------------------------


 Maximum index for augmentation-charges          464 (set IRDMAX)


--------------------------------------------------------------------------------------------------------


 First call to EWALD:  gamma=   0.282
 Maximum number of real-space cells 3x 3x 2
 Maximum number of reciprocal cells 2x 3x 3

    FEWALD:  cpu time      0.0019: real time      0.0019


--------------------------------------- Ionic step        1  -------------------------------------------




--------------------------------------- Iteration      1(   1)  ---------------------------------------


vdW kernel read from vdw_kernel.bindat
  0.0000  0.2424  0.5071  0.7962  1.1119  1.4567  1.8333  2.2446  2.6937  3.1842
  3.7199  4.3049  4.9438  5.6415  6.4036  7.2358  8.1446  9.1372 10.2212 11.4050
 12.6979 14.1099 15.6519 17.3360 19.1751 21.1837 23.3773 25.7729 28.3892 31.2465
 34.3669 37.7748 41.4965 45.5611 50.0000

    POTLOK:  cpu time      1.5070: real time      1.5097
    SETDIJ:  cpu time      0.0763: real time      0.0767
    TRIAL :  cpu time      2.5500: real time      2.5549
    CORREC:  cpu time      0.0036: real time      0.0037
    --------------------------------------------
      LOOP:  cpu time      4.1412: real time      4.2219

 eigenvalue-minimisations  :  5408
 total energy-change (2. order) : 0.6381437E+03  (-0.5255028E+04)
 number of electron      72.0000000 magnetization 
 augmentation part       72.0000000 magnetization 

 Free energy of the ion-electron system (eV)
  ---------------------------------------------------
  alpha Z        PSCENC =        60.22020652
  Ewald energy   TEWEN  =     -1241.27643166
  -Hartree energ DENC   =     -1716.25921835
  -exchange      EXHF   =         0.00000000
  -V(xc)+E(xc)   XCENC  =       213.69013416
  PAW double counting   =      2505.42727958    -2468.98421161
  entropy T*S    EENTRO =        -0.00028747
  eigenvalues    EBANDS =       -45.27553110
  atomic energy  EATOM  =      3330.60176379
  ---------------------------------------------------
  free energy    TOTEN  =       638.14370386 eV

  energy without entropy =      638.14399133  energy(sigma->0) =      638.14384759


--------------------------------------------------------------------------------------------------------




--------------------------------------- Iteration      1(   2)  ---------------------------------------


    TRIAL :  cpu time      3.0448: real time      3.0462
    CORREC:  cpu time      0.0004: real time      0.0004
    --------------------------------------------
      LOOP:  cpu time      3.0563: real time      3.0746

 eigenvalue-minimisations  :  7388
 total energy-change (2. order) :-0.6673983E+03  (-0.6356722E+03)
 number of electron      72.0000000 magnetization 
 augmentation part       72.0000000 magnetization 

 Free energy of the ion-electron system (eV)
  ---------------------------------------------------
  alpha Z        PSCENC =        60.22020652
  Ewald energy   TEWEN  =     -1241.27643166
  -Hartree energ DENC   =     -1716.25921835
  -exchange      EXHF   =         0.00000000
  -V(xc)+E(xc)   XCENC  =       213.69013416
  PAW double counting   =      2505.42727958    -2468.98421161
  entropy T*S    EENTRO =        -0.00000000
  eigenvalues    EBANDS =      -712.67413906
  atomic energy  EATOM  =      3330.60176379
  ---------------------------------------------------
  free energy    TOTEN  =       -29.25461663 eV

  energy without entropy =      -29.25461663  energy(sigma->0) =      -29.25461663


--------------------------------------------------------------------------------------------------------




--------------------------------------- Iteration      1(   3)  ---------------------------------------


    TRIAL :  cpu time      2.7897: real time      2.7906
    CORREC:  cpu time      0.0004: real time      0.0004
    --------------------------------------------
      LOOP:  cpu time      2.8041: real time      2.8212

 eigenvalue-minimisations  :  6640
 total energy-change (2. order) :-0.1139179E+03  (-0.1127073E+03)
 number of electron      72.0000000 magnetization 
 augmentation part       72.0000000 magnetization 

 Free energy of the ion-electron system (eV)
  ---------------------------------------------------
  alpha Z        PSCENC =        60.22020652
  Ewald energy   TEWEN  =     -1241.27643166
  -Hartree energ DENC   =     -1716.25921835
  -exchange      EXHF   =         0.00000000
  -V(xc)+E(xc)   XCENC  =       213.69013416
  PAW double counting   =      2505.42727958    -2468.98421161
  entropy T*S    EENTRO =        -0.00000000
  eigenvalues    EBANDS =      -826.59202461
  atomic energy  EATOM  =      3330.60176379
  ---------------------------------------------------
  free energy    TOTEN  =      -143.17250218 eV

  energy without entropy =     -143.17250218  energy(sigma->0) =     -143.17250218


--------------------------------------------------------------------------------------------------------




--------------------------------------- Iteration      1(   4)  ---------------------------------------


    TRIAL :  cpu time      2.9746: real time      2.9759
    CORREC:  cpu time      0.0004: real time      0.0004
    --------------------------------------------
      LOOP:  cpu time      2.9871: real time      3.0052

 eigenvalue-minimisations  :  7240
 total energy-change (2. order) :-0.4493906E+01  (-0.4472223E+01)
 number of electron      72.0000000 magnetization 
 augmentation part       72.0000000 magnetization 

 Free energy of the ion-electron system (eV)
  ---------------------------------------------------
  alpha Z        PSCENC =        60.22020652
  Ewald energy   TEWEN  =     -1241.27643166
  -Hartree energ DENC   =     -1716.25921835
  -exchange      EXHF   =         0.00000000
  -V(xc)+E(xc)   XCENC  =       213.69013416
  PAW double counting   =      2505.42727958    -2468.98421161
  entropy T*S    EENTRO =        -0.00000000
  eigenvalues    EBANDS =      -831.08593018
  atomic energy  EATOM  =      3330.60176379
  ---------------------------------------------------
  free energy    TOTEN  =      -147.66640775 eV

  energy without entropy =     -147.66640775  energy(sigma->0) =     -147.66640775


--------------------------------------------------------------------------------------------------------




--------------------------------------- Iteration      1(   5)  ---------------------------------------


    TRIAL :  cpu time      3.0108: real time      3.0121
    CORREC:  cpu time      0.0004: real time      0.0004
    CHARGE:  cpu time      0.1025: real time      0.1030
    --------------------------------------------
      LOOP:  cpu time      3.1269: real time      3.1451

 eigenvalue-minimisations  :  7336
 total energy-change (2. order) :-0.1378226E+00  (-0.1377205E+00)
 number of electron      72.0000000 magnetization 
 augmentation part        0.3529440 magnetization 

 Free energy of the ion-electron system (eV)
  ---------------------------------------------------
  alpha Z        PSCENC =        60.22020652
  Ewald energy   TEWEN  =     -1241.27643166
  -Hartree energ DENC   =     -1716.25921835
  -exchange      EXHF   =         0.00000000
  -V(xc)+E(xc)   XCENC  =       213.69013416
  PAW double counting   =      2505.42727958    -2468.98421161
  entropy T*S    EENTRO =        -0.00000000
  eigenvalues    EBANDS =      -831.22375282
  atomic energy  EATOM  =      3330.60176379
  ---------------------------------------------------
  free energy    TOTEN  =      -147.80423039 eV

  energy without entropy =     -147.80423039  energy(sigma->0) =     -147.80423039


--------------------------------------------------------------------------------------------------------




--------------------------------------- Iteration      1(   6)  ---------------------------------------


    POTLOK:  cpu time      0.9125: real time      0.9126
    SETDIJ:  cpu time      0.0693: real time      0.0695
    TRIAL :  cpu time      1.4654: real time      1.4668
    CORREC:  cpu time      1.7101: real time      1.7114
    CHARGE:  cpu time      0.0909: real time      0.0909
    --------------------------------------------
      LOOP:  cpu time      4.2595: real time      4.2770

 eigenvalue-minimisations  :     0
 total energy-change (2. order) : 0.2759539E+02  (-0.1248168E+02)
 number of electron      72.0000000 magnetization 
 augmentation part        0.2426849 magnetization 

 Free energy of the ion-electron system (eV)
  ---------------------------------------------------
  alpha Z        PSCENC =        60.22020652
  Ewald energy   TEWEN  =     -1241.27643166
  -Hartree energ DENC   =     -2092.70782395
  -exchange      EXHF   =         0.00000000
  -V(xc)+E(xc)   XCENC  =       238.12574224
  PAW double counting   =     23788.94265437   -23756.16876938
  entropy T*S    EENTRO =        -0.00000000
  eigenvalues    EBANDS =      -447.94618634
  atomic energy  EATOM  =      3330.60176379
  ---------------------------------------------------
  free energy    TOTEN  =      -120.20884441 eV

  energy without entropy =     -120.20884441  energy(sigma->0) =     -120.20884441


--------------------------------------------------------------------------------------------------------




--------------------------------------- Iteration      1(   7)  ---------------------------------------


    POTLOK:  cpu time      0.9934: real time      0.9937
    SETDIJ:  cpu time      0.0696: real time      0.0696
    TRIAL :  cpu time      1.4247: real time      1.4250
    CORREC:  cpu time      1.6985: real time      1.6997
    CHARGE:  cpu time      0.0917: real time      0.0917
    --------------------------------------------
      LOOP:  cpu time      4.2903: real time      4.3072

 eigenvalue-minimisations  :     0
 total energy-change (2. order) :-0.1249340E+02  (-0.1439286E+01)
 number of electron      72.0000000 magnetization 
 augmentation part        0.1995819 magnetization 

 Free energy of the ion-electron system (eV)
  ---------------------------------------------------
  alpha Z        PSCENC =        60.22020652
  Ewald energy   TEWEN  =     -1241.27643166
  -Hartree energ DENC   =     -1912.13673964
  -exchange      EXHF   =         0.00000000
  -V(xc)+E(xc)   XCENC  =       227.51488059
  PAW double counting   =     31890.53597757   -31855.87113830
  entropy T*S    EENTRO =        -0.00000000
  eigenvalues    EBANDS =      -632.29076075
  atomic energy  EATOM  =      3330.60176379
  ---------------------------------------------------
  free energy    TOTEN  =      -132.70224190 eV

  energy without entropy =     -132.70224190  energy(sigma->0) =     -132.70224190


--------------------------------------------------------------------------------------------------------




--------------------------------------- Iteration      1(   8)  ---------------------------------------


    POTLOK:  cpu time      0.9151: real time      0.9153
    SETDIJ:  cpu time      0.0697: real time      0.0697
    TRIAL :  cpu time      1.4270: real time      1.4277
    CORREC:  cpu time      1.6993: real time      1.7000
    CHARGE:  cpu time      0.0902: real time      0.0902
    --------------------------------------------
      LOOP:  cpu time      4.2161: real time      4.2327

 eigenvalue-minimisations  :     0
 total energy-change (2. order) :-0.1445605E+01  (-0.5487772E+00)
 number of electron      72.0000000 magnetization 
 augmentation part        0.1979698 magnetization 

 Free energy of the ion-electron system (eV)
  ---------------------------------------------------
  alpha Z        PSCENC =        60.22020652
  Ewald energy   TEWEN  =     -1241.27643166
  -Hartree energ DENC   =     -1917.48636380
  -exchange      EXHF   =         0.00000000
  -V(xc)+E(xc)   XCENC  =       227.52610501
  PAW double counting   =     31411.92338649   -31377.09783232
  entropy T*S    EENTRO =        -0.00000000
  eigenvalues    EBANDS =      -628.55868045
  atomic energy  EATOM  =      3330.60176379
  ---------------------------------------------------
  free energy    TOTEN  =      -134.14784642 eV

  energy without entropy =     -134.14784642  energy(sigma->0) =     -134.14784642


--------------------------------------------------------------------------------------------------------




--------------------------------------- Iteration      1(   9)  ---------------------------------------


    POTLOK:  cpu time      0.9109: real time      0.9111
    SETDIJ:  cpu time      0.0696: real time      0.0696
    TRIAL :  cpu time      1.4279: real time      1.4286
    CORREC:  cpu time      1.7017: real time      1.7023
    CHARGE:  cpu time      0.0905: real time      0.0907
    --------------------------------------------
      LOOP:  cpu time      4.2139: real time      4.2327

 eigenvalue-minimisations  :     0
 total energy-change (2. order) :-0.5460647E+00  (-0.1682496E+00)
 number of electron      72.0000000 magnetization 
 augmentation part        0.2047216 magnetization 

 Free energy of the ion-electron system (eV)
  ---------------------------------------------------
  alpha Z        PSCENC =        60.22020652
  Ewald energy   TEWEN  =     -1241.27643166
  -Hartree energ DENC   =     -1909.53873241
  -exchange      EXHF   =         0.00000000
  -V(xc)+E(xc)   XCENC  =       227.11120523
  PAW double counting   =     31537.18754162   -31502.27842127
  entropy T*S    EENTRO =        -0.00000000
  eigenvalues    EBANDS =      -636.72104297
  atomic energy  EATOM  =      3330.60176379
  ---------------------------------------------------
  free energy    TOTEN  =      -134.69391116 eV

  energy without entropy =     -134.69391116  energy(sigma->0) =     -134.69391116


--------------------------------------------------------------------------------------------------------




--------------------------------------- Iteration      1(  10)  ---------------------------------------


    POTLOK:  cpu time      0.9117: real time      0.9117
    SETDIJ:  cpu time      0.0696: real time      0.0698
    TRIAL :  cpu time      1.4227: real time      1.4231
    CORREC:  cpu time      1.7117: real time      1.7124
    CHARGE:  cpu time      0.0906: real time      0.0906
    --------------------------------------------
      LOOP:  cpu time      4.2192: real time      4.2377

 eigenvalue-minimisations  :     0
 total energy-change (2. order) :-0.1675076E+00  (-0.4367532E-01)
 number of electron      72.0000000 magnetization 
 augmentation part        0.2074012 magnetization 

 Free energy of the ion-electron system (eV)
  ---------------------------------------------------
  alpha Z        PSCENC =        60.22020652
  Ewald energy   TEWEN  =     -1241.27643166
  -Hartree energ DENC   =     -1904.75762164
  -exchange      EXHF   =         0.00000000
  -V(xc)+E(xc)   XCENC  =       226.86461062
  PAW double counting   =     30838.73630807   -30803.85311113
  entropy T*S    EENTRO =        -0.00000000
  eigenvalues    EBANDS =      -641.39714336
  atomic energy  EATOM  =      3330.60176379
  ---------------------------------------------------
  free energy    TOTEN  =      -134.86141879 eV

  energy without entropy =     -134.86141879  energy(sigma->0) =     -134.86141879


--------------------------------------------------------------------------------------------------------




--------------------------------------- Iteration      1(  11)  ---------------------------------------


    POTLOK:  cpu time      0.9114: real time      0.9116
    SETDIJ:  cpu time      0.0696: real time      0.0696
    TRIAL :  cpu time      1.5083: real time      1.5087
    CORREC:  cpu time      1.6989: real time      1.6996
    CHARGE:  cpu time      0.0898: real time      0.0898
    --------------------------------------------
      LOOP:  cpu time      4.2918: real time      4.3079

 eigenvalue-minimisations  :     0
 total energy-change (2. order) :-0.4364058E-01  (-0.1048122E-01)
 number of electron      72.0000000 magnetization 
 augmentation part        0.2067070 magnetization 

 Free energy of the ion-electron system (eV)
  ---------------------------------------------------
  alpha Z        PSCENC =        60.22020652
  Ewald energy   TEWEN  =     -1241.27643166
  -Hartree energ DENC   =     -1904.27764634
  -exchange      EXHF   =         0.00000000
  -V(xc)+E(xc)   XCENC  =       226.81647227
  PAW double counting   =     30481.75687029   -30446.90347910
  entropy T*S    EENTRO =        -0.00000000
  eigenvalues    EBANDS =      -641.84281515
  atomic energy  EATOM  =      3330.60176379
  ---------------------------------------------------
  free energy    TOTEN  =      -134.90505938 eV

  energy without entropy =     -134.90505938  energy(sigma->0) =     -134.90505938


--------------------------------------------------------------------------------------------------------




--------------------------------------- Iteration      1(  12)  ---------------------------------------


    POTLOK:  cpu time      0.9132: real time      0.9135
    SETDIJ:  cpu time      0.0696: real time      0.0696
    TRIAL :  cpu time      1.4237: real time      1.4245
    CORREC:  cpu time      1.7011: real time      1.7017
    CHARGE:  cpu time      0.0906: real time      0.0906
    --------------------------------------------
      LOOP:  cpu time      4.2114: real time      4.2290

 eigenvalue-minimisations  :     0
 total energy-change (2. order) :-0.1047872E-01  (-0.2619605E-02)
 number of electron      72.0000000 magnetization 
 augmentation part        0.2064136 magnetization 

 Free energy of the ion-electron system (eV)
  ---------------------------------------------------
  alpha Z        PSCENC =        60.22020652
  Ewald energy   TEWEN  =     -1241.27643166
  -Hartree energ DENC   =     -1903.65027426
  -exchange      EXHF   =         0.00000000
  -V(xc)+E(xc)   XCENC  =       226.77372178
  PAW double counting   =     30497.36833663   -30462.51162080
  entropy T*S    EENTRO =        -0.00000000
  eigenvalues    EBANDS =      -642.44124011
  atomic energy  EATOM  =      3330.60176379
  ---------------------------------------------------
  free energy    TOTEN  =      -134.91553810 eV

  energy without entropy =     -134.91553810  energy(sigma->0) =     -134.91553810


--------------------------------------------------------------------------------------------------------




--------------------------------------- Iteration      1(  13)  ---------------------------------------


    POTLOK:  cpu time      0.9117: real time      0.9120
    SETDIJ:  cpu time      0.0696: real time      0.0696
    TRIAL :  cpu time      1.4280: real time      1.4286
    CORREC:  cpu time      1.7351: real time      1.7361
    CHARGE:  cpu time      0.0912: real time      0.0912
    --------------------------------------------
      LOOP:  cpu time      4.2474: real time      4.2663

 eigenvalue-minimisations  :     0
 total energy-change (2. order) :-0.2619144E-02  (-0.7054238E-03)
 number of electron      72.0000000 magnetization 
 augmentation part        0.2063603 magnetization 

 Free energy of the ion-electron system (eV)
  ---------------------------------------------------
  alpha Z        PSCENC =        60.22020652
  Ewald energy   TEWEN  =     -1241.27643166
  -Hartree energ DENC   =     -1903.61401806
  -exchange      EXHF   =         0.00000000
  -V(xc)+E(xc)   XCENC  =       226.76821568
  PAW double counting   =     30535.31675914   -30500.45955631
  entropy T*S    EENTRO =        -0.00000000
  eigenvalues    EBANDS =      -642.47509633
  atomic energy  EATOM  =      3330.60176379
  ---------------------------------------------------
  free energy    TOTEN  =      -134.91815724 eV

  energy without entropy =     -134.91815724  energy(sigma->0) =     -134.91815724


--------------------------------------------------------------------------------------------------------




--------------------------------------- Iteration      1(  14)  ---------------------------------------


    POTLOK:  cpu time      0.9114: real time      0.9116
    SETDIJ:  cpu time      0.0696: real time      0.0696
    TRIAL :  cpu time      1.4261: real time      1.4265
    CORREC:  cpu time      1.7088: real time      1.7093
    CHARGE:  cpu time      0.0902: real time      0.0902
    --------------------------------------------
      LOOP:  cpu time      4.2184: real time      4.2359

 eigenvalue-minimisations  :     0
 total energy-change (2. order) :-0.7059107E-03  (-0.2214720E-03)
 number of electron      72.0000000 magnetization 
 augmentation part        0.2064747 magnetization 

 Free energy of the ion-electron system (eV)
  ---------------------------------------------------
  alpha Z        PSCENC =        60.22020652
  Ewald energy   TEWEN  =     -1241.27643166
  -Hartree energ DENC   =     -1903.56446104
  -exchange      EXHF   =         0.00000000
  -V(xc)+E(xc)   XCENC  =       226.76299635
  PAW double counting   =     30542.03651469   -30507.17811382
  entropy T*S    EENTRO =        -0.00000000
  eigenvalues    EBANDS =      -642.52133798
  atomic energy  EATOM  =      3330.60176379
  ---------------------------------------------------
  free energy    TOTEN  =      -134.91886315 eV

  energy without entropy =     -134.91886315  energy(sigma->0) =     -134.91886315


--------------------------------------------------------------------------------------------------------




--------------------------------------- Iteration      1(  15)  ---------------------------------------


    POTLOK:  cpu time      0.9121: real time      0.9124
    SETDIJ:  cpu time      0.0697: real time      0.0697
    TRIAL :  cpu time      1.5250: real time      1.5253
    CORREC:  cpu time      1.7003: real time      1.7011
    CHARGE:  cpu time      0.0907: real time      0.0907
    --------------------------------------------
      LOOP:  cpu time      4.3110: real time      4.3287

 eigenvalue-minimisations  :     0
 total energy-change (2. order) :-0.2216459E-03  (-0.7413379E-04)
 number of electron      72.0000000 magnetization 
 augmentation part        0.2064686 magnetization 

 Free energy of the ion-electron system (eV)
  ---------------------------------------------------
  alpha Z        PSCENC =        60.22020652
  Ewald energy   TEWEN  =     -1241.27643166
  -Hartree energ DENC   =     -1903.70776055
  -exchange      EXHF   =         0.00000000
  -V(xc)+E(xc)   XCENC  =       226.77030618
  PAW double counting   =     30522.84928299   -30487.99197884
  entropy T*S    EENTRO =        -0.00000000
  eigenvalues    EBANDS =      -642.38447323
  atomic energy  EATOM  =      3330.60176379
  ---------------------------------------------------
  free energy    TOTEN  =      -134.91908480 eV

  energy without entropy =     -134.91908480  energy(sigma->0) =     -134.91908480


--------------------------------------------------------------------------------------------------------




--------------------------------------- Iteration      1(  16)  ---------------------------------------


    POTLOK:  cpu time      0.9121: real time      0.9124
    SETDIJ:  cpu time      0.0696: real time      0.0696
    TRIAL :  cpu time      1.4267: real time      1.4274
    CORREC:  cpu time      1.7023: real time      1.7029
    CHARGE:  cpu time      0.0900: real time      0.0900
    --------------------------------------------
      LOOP:  cpu time      4.2131: real time      4.2306

 eigenvalue-minimisations  :     0
 total energy-change (2. order) :-0.7444707E-04  (-0.2572145E-04)
 number of electron      72.0000000 magnetization 
 augmentation part        0.2064545 magnetization 

 Free energy of the ion-electron system (eV)
  ---------------------------------------------------
  alpha Z        PSCENC =        60.22020652
  Ewald energy   TEWEN  =     -1241.27643166
  -Hartree energ DENC   =     -1903.69070422
  -exchange      EXHF   =         0.00000000
  -V(xc)+E(xc)   XCENC  =       226.76935355
  PAW double counting   =     30514.47981403   -30479.62209547
  entropy T*S    EENTRO =        -0.00000000
  eigenvalues    EBANDS =      -642.40106578
  atomic energy  EATOM  =      3330.60176379
  ---------------------------------------------------
  free energy    TOTEN  =      -134.91915925 eV

  energy without entropy =     -134.91915925  energy(sigma->0) =     -134.91915925


--------------------------------------------------------------------------------------------------------




--------------------------------------- Iteration      1(  17)  ---------------------------------------


    POTLOK:  cpu time      0.9139: real time      0.9141
    SETDIJ:  cpu time      0.0695: real time      0.0695
    TRIAL :  cpu time      1.4255: real time      1.4261
    CORREC:  cpu time      1.7081: real time      1.7089
    CHARGE:  cpu time      0.0908: real time      0.0908
    --------------------------------------------
      LOOP:  cpu time      4.2192: real time      4.2388

 eigenvalue-minimisations  :     0
 total energy-change (2. order) :-0.2562407E-04  (-0.8339378E-05)
 number of electron      72.0000000 magnetization 
 augmentation part        0.2063872 magnetization 

 Free energy of the ion-electron system (eV)
  ---------------------------------------------------
  alpha Z        PSCENC =        60.22020652
  Ewald energy   TEWEN  =     -1241.27643166
  -Hartree energ DENC   =     -1903.73186931
  -exchange      EXHF   =         0.00000000
  -V(xc)+E(xc)   XCENC  =       226.77150366
  PAW double counting   =     30519.22545582   -30484.36770725
  entropy T*S    EENTRO =        -0.00000000
  eigenvalues    EBANDS =      -642.36210644
  atomic energy  EATOM  =      3330.60176379
  ---------------------------------------------------
  free energy    TOTEN  =      -134.91918487 eV

  energy without entropy =     -134.91918487  energy(sigma->0) =     -134.91918487


--------------------------------------------------------------------------------------------------------




--------------------------------------- Iteration      1(  18)  ---------------------------------------


[...]
     31      -2.8916      2.00000
     32      -2.6805      2.00000
     33      -2.5235      2.00000
     34      -2.3216      2.00000
     35      -2.1128      2.00000
     36      -1.9596      2.00000
     37       4.2711      0.00000
     38       4.4071      0.00000
     39       4.9241      0.00000
     40       5.3723      0.00000
     41       5.5775      0.00000
     42       5.8951      0.00000
     43       6.0412      0.00000
     44       6.7984      0.00000
     45       6.8388      0.00000
     46       7.0590      0.00000
     47       7.6294      0.00000
     48       7.7802      0.00000
     49       7.8373      0.00000
     50       8.1613      0.00000
     51       8.7063      0.00000
     52       9.0333      0.00000

 k-point    48 :      -0.1667    0.2500    0.5000
  band No.  band energies     occupation 
      1     -23.1194      2.00000
      2     -23.0949      2.00000
      3     -20.7723      2.00000
      4     -20.7073      2.00000
      5     -18.0131      2.00000
      6     -17.9451      2.00000
      7     -14.4780      2.00000
      8     -14.4074      2.00000
      9     -11.6174      2.00000
     10     -11.3575      2.00000
     11     -10.0269      2.00000
     12      -9.7585      2.00000
     13      -9.3459      2.00000
     14      -9.1233      2.00000
     15      -8.3758      2.00000
     16      -7.7722      2.00000
     17      -7.6416      2.00000
     18      -7.4457      2.00000
     19      -6.8197      2.00000
     20      -6.1111      2.00000
     21      -6.0245      2.00000
     22      -6.0177      2.00000
     23      -5.3819      2.00000
     24      -5.2938      2.00000
     25      -4.9848      2.00000
     26      -4.7842      2.00000
     27      -4.2790      2.00000
     28      -4.1634      2.00000
     29      -4.0930      2.00000
     30      -3.8953      2.00000
     31      -2.9192      2.00000
     32      -2.5539      2.00000
     33      -2.4235      2.00000
     34      -2.2774      2.00000
     35      -2.0383      2.00000
     36      -1.9238      2.00000
     37       4.0371      0.00000
     38       4.3304      0.00000
     39       4.8263      0.00000
     40       4.9815      0.00000
     41       5.2683      0.00000
     42       5.9146      0.00000
     43       6.3270      0.00000
     44       6.6702      0.00000
     45       6.9411      0.00000
     46       7.3640      0.00000
     47       7.7222      0.00000
     48       8.0694      0.00000
     49       8.1939      0.00000
     50       8.3097      0.00000
     51       8.4069      0.00000
     52       8.9334      0.00000

 k-point    49 :       0.0000    0.5000    0.5000
  band No.  band energies     occupation 
      1     -23.1186      2.00000
      2     -23.1061      2.00000
      3     -20.7819      2.00000
      4     -20.7049      2.00000
      5     -17.9529      2.00000
      6     -17.9300      2.00000
      7     -14.4634      2.00000
      8     -14.4224      2.00000
      9     -11.5739      2.00000
     10     -11.5005      2.00000
     11     -10.0268      2.00000
     12      -9.8842      2.00000
     13      -9.3308      2.00000
     14      -9.2237      2.00000
     15      -8.3841      2.00000
     16      -7.8015      2.00000
     17      -7.5876      2.00000
     18      -7.5405      2.00000
     19      -6.7438      2.00000
     20      -5.9737      2.00000
     21      -5.9395      2.00000
     22      -5.9355      2.00000
     23      -5.4130      2.00000
     24      -5.1675      2.00000
     25      -4.8662      2.00000
     26      -4.8126      2.00000
     27      -4.3593      2.00000
     28      -4.2827      2.00000
     29      -4.0326      2.00000
     30      -4.0034      2.00000
     31      -2.8860      2.00000
     32      -2.4736      2.00000
     33      -2.3194      2.00000
     34      -2.2984      2.00000
     35      -1.9718      2.00000
     36      -1.9288      2.00000
     37       3.9722      0.00000
     38       4.2845      0.00000
     39       4.7565      0.00000
     40       4.9458      0.00000
     41       5.2338      0.00000
     42       5.3346      0.00000
     43       6.5020      0.00000
     44       6.5123      0.00000
     45       7.3646      0.00000
     46       7.5052      0.00000
     47       7.7075      0.00000
     48       7.9546      0.00000
     49       8.3850      0.00000
     50       8.6051      0.00000
     51       8.6667      0.00000
     52       8.9084      0.00000

 k-point    50 :       0.1667    0.5000    0.5000
  band No.  band energies     occupation 
      1     -23.1138      2.00000
      2     -23.1000      2.00000
      3     -20.7767      2.00000
      4     -20.7044      2.00000
      5     -18.0020      2.00000
      6     -17.9545      2.00000
      7     -14.4654      2.00000
      8     -14.4213      2.00000
      9     -11.5402      2.00000
     10     -11.4502      2.00000
     11      -9.9491      2.00000
     12      -9.8198      2.00000
     13      -9.2576      2.00000
     14      -9.1977      2.00000
     15      -8.4037      2.00000
     16      -7.7983      2.00000
     17      -7.6130      2.00000
     18      -7.4783      2.00000
     19      -6.8405      2.00000
     20      -6.0879      2.00000
     21      -5.9786      2.00000
     22      -5.9156      2.00000
     23      -5.4678      2.00000
     24      -5.2413      2.00000
     25      -4.9679      2.00000
     26      -4.7567      2.00000
     27      -4.3462      2.00000
     28      -4.2813      2.00000
     29      -4.0088      2.00000
     30      -3.9776      2.00000
     31      -2.8911      2.00000
     32      -2.5405      2.00000
     33      -2.4292      2.00000
     34      -2.2642      2.00000
     35      -1.9933      2.00000
     36      -1.9473      2.00000
     37       4.0617      0.00000
     38       4.3373      0.00000
     39       4.7375      0.00000
     40       5.0796      0.00000
     41       5.4346      0.00000
     42       5.4745      0.00000
     43       6.4033      0.00000
     44       6.4834      0.00000
     45       7.1279      0.00000
     46       7.4831      0.00000
     47       7.5879      0.00000
     48       7.9003      0.00000
     49       8.2926      0.00000
     50       8.4548      0.00000
     51       8.7126      0.00000
     52       9.0599      0.00000

 k-point    51 :       0.3333    0.5000    0.5000
  band No.  band energies     occupation 
      1     -23.1037      2.00000
      2     -23.0880      2.00000
      3     -20.7657      2.00000
      4     -20.7038      2.00000
      5     -18.0856      2.00000
      6     -18.0154      2.00000
      7     -14.4622      2.00000
      8     -14.4260      2.00000
      9     -11.4586      2.00000
     10     -11.3851      2.00000
     11      -9.8059      2.00000
     12      -9.7202      2.00000
     13      -9.1021      2.00000
     14      -9.0371      2.00000
     15      -8.3561      2.00000
     16      -7.7502      2.00000
     17      -7.6279      2.00000
     18      -7.4186      2.00000
     19      -7.1268      2.00000
     20      -6.4516      2.00000
     21      -6.0182      2.00000
     22      -5.9275      2.00000
     23      -5.5629      2.00000
     24      -5.3916      2.00000
     25      -5.0268      2.00000
     26      -4.7435      2.00000
     27      -4.3211      2.00000
     28      -4.2825      2.00000
     29      -3.9793      2.00000
     30      -3.8948      2.00000
     31      -2.8764      2.00000
     32      -2.6445      2.00000
     33      -2.5309      2.00000
     34      -2.3071      2.00000
     35      -2.0425      2.00000
     36      -2.0053      2.00000
     37       4.2130      0.00000
     38       4.4213      0.00000
     39       4.8512      0.00000
     40       5.3547      0.00000
     41       5.7108      0.00000
     42       5.9251      0.00000
     43       6.2534      0.00000
     44       6.3847      0.00000
     45       6.8698      0.00000
     46       7.0038      0.00000
     47       7.3002      0.00000
     48       7.9228      0.00000
     49       8.1660      0.00000
     50       8.4116      0.00000
     51       8.5183      0.00000
     52       8.9070      0.00000

 k-point    52 :       0.5000    0.5000    0.5000
  band No.  band energies     occupation 
      1     -23.0985      2.00000
      2     -23.0821      2.00000
      3     -20.7598      2.00000
      4     -20.7038      2.00000
      5     -18.1244      2.00000
      6     -18.0476      2.00000
      7     -14.4554      2.00000
      8     -14.4334      2.00000
      9     -11.3909      2.00000
     10     -11.3891      2.00000
     11      -9.7516      2.00000
     12      -9.6812      2.00000
     13      -9.0022      2.00000
     14      -8.9432      2.00000
     15      -8.1142      2.00000
     16      -7.8145      2.00000
     17      -7.6476      2.00000
     18      -7.4220      2.00000
     19      -7.2575      2.00000
     20      -6.7689      2.00000
     21      -6.0318      2.00000
     22      -5.9399      2.00000
     23      -5.5989      2.00000
     24      -5.4658      2.00000
     25      -5.0250      2.00000
     26      -4.7515      2.00000
     27      -4.2971      2.00000
     28      -4.2947      2.00000
     29      -3.9657      2.00000
     30      -3.8472      2.00000
     31      -2.8412      2.00000
     32      -2.7144      2.00000
     33      -2.5579      2.00000
     34      -2.3329      2.00000
     35      -2.0987      2.00000
     36      -2.0187      2.00000
     37       4.2613      0.00000
     38       4.4793      0.00000
     39       4.9788      0.00000
     40       5.4791      0.00000
     41       5.7839      0.00000
     42       6.0739      0.00000
     43       6.4087      0.00000
     44       6.5157      0.00000
     45       6.6289      0.00000
     46       6.7318      0.00000
     47       7.1675      0.00000
     48       7.6663      0.00000
     49       8.1406      0.00000
     50       8.3228      0.00000
     51       8.5716      0.00000
     52       9.4220      0.00000


--------------------------------------------------------------------------------------------------------


 soft charge-density along one line, spin component           1
         0         1         2         3         4         5         6         7         8         9
 total charge-density along one line

 pseudopotential strength for first ion, spin component:           1
 12.550  21.116  -0.002  -0.001  -0.002  -0.003  -0.001  -0.003
 21.116  35.526  -0.003  -0.001  -0.003  -0.006  -0.002  -0.005
 -0.002  -0.003  -3.133  -0.000  -0.000  -5.610  -0.000  -0.000
 -0.001  -0.001  -0.000  -3.132  -0.000  -0.000  -5.609  -0.000
 -0.002  -0.003  -0.000  -0.000  -3.133  -0.000  -0.000  -5.609
 -0.003  -0.006  -5.610  -0.000  -0.000 -10.022  -0.001  -0.001
 -0.001  -0.002  -0.000  -5.609  -0.000  -0.001 -10.021  -0.001
 -0.003  -0.005  -0.000  -0.000  -5.609  -0.001  -0.001 -10.022
 total augmentation occupancy for first ion, spin component:           1
  7.226  -2.439  -0.082  -0.042  -0.068   0.056   0.028   0.041
 -2.439   0.836   0.067   0.033   0.050  -0.039  -0.019  -0.026
 -0.082   0.067   5.614   0.050   0.056  -1.776  -0.039  -0.039
 -0.042   0.033   0.050   5.539   0.032  -0.039  -1.720  -0.024
 -0.068   0.050   0.056   0.032   5.538  -0.039  -0.024  -1.721
  0.056  -0.039  -1.776  -0.039  -0.039   0.568   0.022   0.021
  0.028  -0.019  -0.039  -1.720  -0.024   0.022   0.538   0.012
  0.041  -0.026  -0.039  -0.024  -1.721   0.021   0.012   0.538


------------------------ aborting loop because EDIFF is reached ----------------------------------------


    FORLOC:  cpu time      0.0038: real time      0.0038
    FORNL :  cpu time      0.7583: real time      0.7585
    FORCOR:  cpu time      0.9829: real time      0.9835
    OFIELD:  cpu time      0.0021: real time      0.0021

 VOLUME and BASIS-vectors are now :
 -----------------------------------------------------------------------------
  energy-cutoff  :     1000.00
  volume of cell :      248.77
      direct lattice vectors                 reciprocal lattice vectors
     5.051000000  0.000000000  0.000000000     0.197980598 -0.046983007  0.045053615
     1.618830000  6.821550000  0.000000000    -0.000000000  0.146594249  0.021882239
    -1.898810000 -1.077750000  7.220100000     0.000000000  0.000000000  0.138502237

  length of vectors
     5.051000000  7.011002423  7.543001292     0.208407169  0.148218441  0.138502237


 FORCES acting on ions:
    Electron-Ion                     Ewald-Force                    Non-Local-Force
 -----------------------------------------------------------------------------------------------
   -.906E+01 -.882E+02 -.548E+02   0.100E+02 0.892E+02 0.552E+02   -.103E+01 -.114E+01 -.432E+00
   0.907E+01 0.882E+02 0.548E+02   -.100E+02 -.892E+02 -.552E+02   0.103E+01 0.114E+01 0.431E+00
   0.104E+03 -.614E+02 -.376E+02   -.114E+03 0.679E+02 0.389E+02   0.998E+01 -.674E+01 -.131E+01
   -.104E+03 0.614E+02 0.376E+02   0.114E+03 -.679E+02 -.389E+02   -.998E+01 0.674E+01 0.131E+01
   -.409E+02 0.289E+02 -.168E+02   0.397E+02 -.326E+02 0.143E+02   0.129E+01 0.394E+01 0.269E+01
   0.408E+02 -.289E+02 0.168E+02   -.397E+02 0.326E+02 -.143E+02   -.129E+01 -.395E+01 -.269E+01
   -.116E+03 0.105E+03 -.381E+02   0.120E+03 -.111E+03 0.426E+02   -.442E+01 0.636E+01 -.450E+01
   0.116E+03 -.105E+03 0.381E+02   -.120E+03 0.111E+03 -.426E+02   0.442E+01 -.636E+01 0.449E+01
   -.149E+03 -.931E+02 -.106E+03   0.189E+03 0.110E+03 0.121E+03   -.402E+02 -.165E+02 -.146E+02
   0.149E+03 0.931E+02 0.106E+03   -.189E+03 -.110E+03 -.121E+03   0.402E+02 0.165E+02 0.146E+02
   0.202E+03 0.716E+02 0.524E+02   -.246E+03 -.830E+02 -.666E+02   0.447E+02 0.114E+02 0.143E+02
   -.202E+03 -.716E+02 -.524E+02   0.246E+03 0.830E+02 0.666E+02   -.447E+02 -.114E+02 -.143E+02
   0.371E+02 -.362E+02 -.183E+02   -.413E+02 0.398E+02 0.196E+02   0.411E+01 -.352E+01 -.120E+01
   -.371E+02 0.362E+02 0.183E+02   0.413E+02 -.398E+02 -.196E+02   -.411E+01 0.352E+01 0.120E+01
   -.282E+02 -.531E+01 -.358E+02   0.310E+02 0.415E+01 0.406E+02   -.271E+01 0.114E+01 -.472E+01
   0.282E+02 0.532E+01 0.358E+02   -.310E+02 -.415E+01 -.406E+02   0.270E+01 -.114E+01 0.472E+01
   -.315E+02 -.276E+02 0.107E+02   0.351E+02 0.303E+02 -.141E+02   -.355E+01 -.267E+01 0.339E+01
   0.315E+02 0.276E+02 -.107E+02   -.351E+02 -.303E+02 0.141E+02   0.355E+01 0.267E+01 -.339E+01
   0.485E+02 0.142E+02 -.377E+02   -.523E+02 -.170E+02 0.412E+02   0.372E+01 0.270E+01 -.344E+01
   -.485E+02 -.142E+02 0.377E+02   0.523E+02 0.170E+02 -.412E+02   -.372E+01 -.270E+01 0.344E+01
   0.339E+02 -.188E+02 0.315E+02   -.367E+02 0.199E+02 -.366E+02   0.279E+01 -.115E+01 0.501E+01
   -.339E+02 0.188E+02 -.315E+02   0.367E+02 -.199E+02 0.366E+02   -.279E+01 0.115E+01 -.501E+01
   -.519E+02 -.126E+02 -.214E+02   0.588E+02 0.153E+02 0.226E+02   -.685E+01 -.259E+01 -.120E+01
   0.519E+02 0.126E+02 0.214E+02   -.588E+02 -.153E+02 -.226E+02   0.685E+01 0.259E+01 0.120E+01
   -.588E+01 0.479E+02 0.195E+02   0.517E+01 -.541E+02 -.235E+02   0.688E+00 0.610E+01 0.391E+01
   0.588E+01 -.479E+02 -.195E+02   -.518E+01 0.541E+02 0.235E+02   -.687E+00 -.610E+01 -.391E+01
 -----------------------------------------------------------------------------------------------
   0.210E-02 -.628E-02 -.515E-02   -.124E-13 0.995E-13 0.604E-13   -.156E-02 0.645E-02 0.534E-02


 POSITION                                       TOTAL-FORCE (eV/Angst)
 -----------------------------------------------------------------------------------
      4.94844      5.03869      2.64154        -0.034822     -0.104556     -0.055595
     -0.17729      0.70496      4.57866         0.034729      0.103822      0.055164
      4.39308      3.78968      1.99505         0.197870     -0.037628      0.008259
      0.37806      1.95399      5.22510        -0.198449      0.037767     -0.007700
      0.20252      1.74281      1.10683         0.002174      0.059199      0.032934
      4.56847      4.00089      6.11328         0.006593     -0.063142     -0.033915
      1.28874      0.96879      0.95087        -0.078912      0.057280      0.042766
      3.48237      4.77480      6.26928         0.074189     -0.049359     -0.038850
      0.48145      2.91027      1.73336        -0.048993      0.023224     -0.004221
      4.28966      2.83336      5.48678         0.047866     -0.022848      0.004302
      4.10717      1.42487      0.74293        -0.026515     -0.006049     -0.008618
      0.66392      4.31883      6.47703         0.024613      0.006454      0.008717
      4.12460      5.72648      2.87648        -0.077934      0.065283      0.020901
      0.64658      0.01720      4.34376         0.078009     -0.065501     -0.020997
      0.42570      4.80066      3.57369         0.048738     -0.021431      0.093899
      4.34549      0.94291      3.64645        -0.048765      0.021505     -0.093531
      5.64429      5.55594      1.96830         0.066539      0.047157     -0.068957
     -0.87312      0.18765      5.25189        -0.066355     -0.046713      0.068717
      3.69175      3.26461      2.65942        -0.081121     -0.059775      0.074740
      1.07940      2.47903      4.56073         0.081138      0.059977     -0.074856
      3.88355      4.00550      1.04758        -0.054761      0.024687     -0.106851
      0.88758      1.73816      6.17258         0.054757     -0.024530      0.106818
      2.22576      1.33808      1.11945         0.100199      0.039710      0.016148
      2.54533      4.40553      6.10072        -0.100528     -0.039772     -0.016299
      1.18581      0.11386      0.39366        -0.019565     -0.099755     -0.066613
      3.58527      5.62994      6.82644         0.019309      0.094993      0.063637
 -----------------------------------------------------------------------------------
    total drift:                                0.000542      0.000171      0.000197


--------------------------------------------------------------------------------------------------------



  FREE ENERGIE OF THE ION-ELECTRON SYSTEM (eV)
  ---------------------------------------------------
  free  energy   TOTEN  =      -134.91919651 eV

  energy  without entropy=     -134.91919651  energy(sigma->0) =     -134.91919651



--------------------------------------------------------------------------------------------------------


    POTLOK:  cpu time      1.0668: real time      1.0671


--------------------------------------------------------------------------------------------------------


 stress matrix after NEB project (eV)
      0.00000      0.00000      0.00000
      0.00000      0.00000      0.00000
      0.00000      0.00000      0.00000
  FORCES: max atom, RMS     0.202158    0.112798
  FORCE total and by dimension    0.575157    0.198449
  Stress total and by dimension    0.000000    0.000000
     LOOP+:  cpu time     95.3168: real time     95.7810
    4ORBIT:  cpu time      0.0000: real time      0.0000

 total amount of memory used by VASP MPI-rank0    59959. kBytes
=======================================================================

   base      :      30000. kBytes
   nonl-proj :       7852. kBytes
   fftplans  :       1147. kBytes
   grid      :       2138. kBytes
   one-center:          3. kBytes
   wavefun   :      18819. kBytes

  
  
 General timing and accounting informations for this job:
 ========================================================
  
                  Total CPU time used (sec):      107.895
                            User time (sec):      105.876
                          System time (sec):        2.019
                         Elapsed time (sec):      109.307
  
                   Maximum memory used (kb):      236472.
                   Average memory used (kb):          N/A
  
                          Minor page faults:        71665
                          Major page faults:          818
                 Voluntary context switches:         3305
