 vasp.6.4.1 05Apr23 (build Jun  6 2023 14:36:51) complex                         
 executed on        HPECrayEX_GCC date 2024.08.20  14:46:08
 running  256 mpi-ranks, with    1 threads/rank, on    2 nodes
 distrk:  each k-point on  128 cores,    2 groups
 distr:  one band on NCORE=  32 cores,    4 groups


--------------------------------------------------------------------------------------------------------


 INCAR:
   ALGO = Conjugate
   KPAR = 2
   NCORE = 32
   ISMEAR = 0
   SIGMA = 0.01
   PREC = Accurate
   EDIFF = 1E-7
   ENCUT = 1000
   ISIF = 0
   METAGGA = R2SCAN
   LASPH = .TRUE.
   SYMPREC = 1E-7
   LWAVE = .FALSE.
   LCHARG = .FALSE.
   LWAVE = .FALSE.
   LCHARGE = .FALSE.

 POTCAR:    PAW_PBE C_h 06Feb2004                 
 POTCAR:    PAW_PBE N_h 06Feb2004                 
 POTCAR:    PAW_PBE O_h 06Feb2004                 
 POTCAR:    PAW_PBE H_h 06Feb2004                 
 POTCAR:    PAW_PBE C_h 06Feb2004                 
   VRHFIN =C: s2p2                                                                                  
   LEXCH  = PE                                                                                      
   EATOM  =   147.1560 eV,   10.8157 Ry                                                             
                                                                                                    
   TITEL  = PAW_PBE C_h 06Feb2004                                                                   
   LULTRA =        F    use ultrasoft PP ?                                                          
   IUNSCR =        1    unscreen: 0-lin 1-nonlin 2-no                                               
   RPACOR =    0.800    partial core radius                                                         
   POMASS =   12.011; ZVAL   =    4.000    mass and valenz                                          
   RCORE  =    1.100    outmost cutoff radius                                                       
   RWIGS  =    1.630; RWIGS  =    0.863    wigner-seitz radius (au A)                               
   ENMAX  =  700.000; ENMIN  =  500.000 eV                                                          
   ICORE  =        2    local potential                                                             
   LCOR   =        T    correct aug charges                                                         
   LPAW   =        T    paw PP                                                                      
   EAUG   =  946.768                                                                                
   DEXC   =    0.000                                                                                
   RMAX   =    1.128    core radius for proj-oper                                                   
   RAUG   =    1.300    factor for augmentation sphere                                              
   RDEP   =    1.162    radius for radial grids                                                     
   RDEPT  =    1.088    core radius for aug-charge                                                  
                                                                                                    
   Atomic configuration                                                                             
    4 entries                                                                                       
     n  l   j            E        occ.                                                              
     1  0  0.50      -273.3789   2.0000                                                             
     2  0  0.50       -13.7508   2.0000                                                             
     2  1  0.50        -5.2854   2.0000                                                             
     3  2  1.50        -5.4423   0.0000                                                             
   Description                                                                                      
     l       E           TYP  RCUT    TYP  RCUT                                                     
     0    -13.7508458     23  1.100                                                                 
     0     -8.2022199     23  1.100                                                                 
     1     -5.2854383     23  1.100                                                                 
     1      1.1560700     23  1.100                                                                 
     2     -5.4423304      7  1.100                                                                 
  local pseudopotential read in
  partial core-charges read in
  partial kinetic energy density read in
  atomic valenz-charges read in
  non local Contribution for L=           0  read in
    real space projection operators read in
  non local Contribution for L=           0  read in
    real space projection operators read in
  non local Contribution for L=           1  read in
    real space projection operators read in
  non local Contribution for L=           1  read in
    real space projection operators read in
    PAW grid and wavefunctions read in

   number of l-projection  operators is LMAX  =           4
   number of lm-projection operators is LMMAX =           8

 POTCAR:    PAW_PBE N_h 06Feb2004                 
   VRHFIN =N: s2p3                                                                                  
   LEXCH  = PE                                                                                      
   EATOM  =   264.5486 eV,   19.4438 Ry                                                             
                                                                                                    
   TITEL  = PAW_PBE N_h 06Feb2004                                                                   
   LULTRA =        F    use ultrasoft PP ?                                                          
   IUNSCR =        1    unscreen: 0-lin 1-nonlin 2-no                                               
   RPACOR =    0.800    partial core radius                                                         
   POMASS =   14.001; ZVAL   =    5.000    mass and valenz                                          
   RCORE  =    1.100    outmost cutoff radius                                                       
   RWIGS  =    1.480; RWIGS  =    0.783    wigner-seitz radius (au A)                               
   ENMAX  =  700.000; ENMIN  =  500.000 eV                                                          
   ICORE  =        2    local potential                                                             
   LCOR   =        T    correct aug charges                                                         
   LPAW   =        T    paw PP                                                                      
   EAUG   =  904.640                                                                                
   DEXC   =    0.000                                                                                
   RMAX   =    1.127    core radius for proj-oper                                                   
   RAUG   =    1.300    factor for augmentation sphere                                              
   RDEP   =    1.115    radius for radial grids                                                     
   RDEPT  =    1.106    core radius for aug-charge                                                  
                                                                                                    
   Atomic configuration                                                                             
    4 entries                                                                                       
     n  l   j            E        occ.                                                              
     1  0  0.50      -384.7179   2.0000                                                             
     2  0  0.50       -18.5828   2.0000                                                             
     2  1  0.50        -7.0898   3.0000                                                             
     3  2  1.50        -6.8029   0.0000                                                             
   Description                                                                                      
     l       E           TYP  RCUT    TYP  RCUT                                                     
     0    -18.5828117     23  1.100                                                                 
     0    -15.0750597     23  1.100                                                                 
     1     -7.0897851     23  1.100                                                                 
     1     -1.9663412     23  1.100                                                                 
     2     -6.8029130      7  1.100                                                                 
  local pseudopotential read in
  partial core-charges read in
  partial kinetic energy density read in
  kinetic energy density of atom read in
  atomic valenz-charges read in
  non local Contribution for L=           0  read in
    real space projection operators read in
  non local Contribution for L=           0  read in
    real space projection operators read in
  non local Contribution for L=           1  read in
    real space projection operators read in
  non local Contribution for L=           1  read in
    real space projection operators read in
    PAW grid and wavefunctions read in

   number of l-projection  operators is LMAX  =           4
   number of lm-projection operators is LMMAX =           8

 POTCAR:    PAW_PBE O_h 06Feb2004                 
   VRHFIN =O: s2p4                                                                                  
   LEXCH  = PE                                                                                      
   EATOM  =   432.3788 eV,   31.7789 Ry                                                             
                                                                                                    
   TITEL  = PAW_PBE O_h 06Feb2004                                                                   
   LULTRA =        F    use ultrasoft PP ?                                                          
   IUNSCR =        1    unscreen: 0-lin 1-nonlin 2-no                                               
   RPACOR =    0.800    partial core radius                                                         
   POMASS =   16.000; ZVAL   =    6.000    mass and valenz                                          
   RCORE  =    1.100    outmost cutoff radius                                                       
   RWIGS  =    1.400; RWIGS  =    0.741    wigner-seitz radius (au A)                               
   ENMAX  =  700.000; ENMIN  =  500.000 eV                                                          
   ICORE  =        2    local potential                                                             
   LCOR   =        T    correct aug charges                                                         
   LPAW   =        T    paw PP                                                                      
   EAUG   =  888.804                                                                                
   DEXC   =    0.000                                                                                
   RMAX   =    1.128    core radius for proj-oper                                                   
   RAUG   =    1.300    factor for augmentation sphere                                              
   RDEP   =    1.125    radius for radial grids                                                     
   RDEPT  =    1.088    core radius for aug-charge                                                  
                                                                                                    
   Atomic configuration                                                                             
    4 entries                                                                                       
     n  l   j            E        occ.                                                              
     1  0  0.50      -514.6923   2.0000                                                             
     2  0  0.50       -23.9615   2.0000                                                             
     2  1  0.50        -9.0305   4.0000                                                             
     3  2  1.50        -9.5241   0.0000                                                             
   Description                                                                                      
     l       E           TYP  RCUT    TYP  RCUT                                                     
     0    -23.9615319     23  1.100                                                                 
     0    -25.3221145     23  1.100                                                                 
     1     -9.0304911     23  1.100                                                                 
     1     -5.4802209     23  1.100                                                                 
     2     -9.5240782      7  1.100                                                                 
  local pseudopotential read in
  partial core-charges read in
  partial kinetic energy density read in
  atomic valenz-charges read in
  non local Contribution for L=           0  read in
    real space projection operators read in
  non local Contribution for L=           0  read in
    real space projection operators read in
  non local Contribution for L=           1  read in
    real space projection operators read in
  non local Contribution for L=           1  read in
    real space projection operators read in
    PAW grid and wavefunctions read in

   number of l-projection  operators is LMAX  =           4
   number of lm-projection operators is LMMAX =           8

 POTCAR:    PAW_PBE H_h 06Feb2004                 
   VRHFIN =H: ultrasoft test                                                                        
   LEXCH  = PE                                                                                      
   EATOM  =    12.4884 eV,    0.9179 Ry                                                             
                                                                                                    
   TITEL  = PAW_PBE H_h 06Feb2004                                                                   
   LULTRA =        F    use ultrasoft PP ?                                                          
   IUNSCR =        0    unscreen: 0-lin 1-nonlin 2-no                                               
   RPACOR =    0.000    partial core radius                                                         
   POMASS =    1.000; ZVAL   =    1.000    mass and valenz                                          
   RCORE  =    0.800    outmost cutoff radius                                                       
   RWIGS  =    0.700; RWIGS  =    0.370    wigner-seitz radius (au A)                               
   ENMAX  =  700.000; ENMIN  =  350.000 eV                                                          
   RCLOC  =    0.701    cutoff for local pot                                                        
   LCOR   =        T    correct aug charges                                                         
   LPAW   =        T    paw PP                                                                      
   EAUG   = 1000.000                                                                                
   RMAX   =    0.819    core radius for proj-oper                                                   
   RAUG   =    1.000    factor for augmentation sphere                                              
   RDEP   =    0.817    radius for radial grids                                                     
   RDEPT  =    0.817    core radius for aug-charge                                                  
                                                                                                    
   Atomic configuration                                                                             
    2 entries                                                                                       
     n  l   j            E        occ.                                                              
     1  0  0.50        -6.4927   1.0000                                                             
     2  1  0.50        -3.4015   0.0000                                                             
   Description                                                                                      
     l       E           TYP  RCUT    TYP  RCUT                                                     
     0     -6.4927493     23  0.800                                                                 
     0      6.8029130     23  0.800                                                                 
     1     -6.8029130     23  0.800                                                                 
  local pseudopotential read in
  atomic valenz-charges read in
  non local Contribution for L=           0  read in
    real space projection operators read in
  non local Contribution for L=           0  read in
    real space projection operators read in
  non local Contribution for L=           1  read in
    real space projection operators read in
    PAW grid and wavefunctions read in

   number of l-projection  operators is LMAX  =           3
   number of lm-projection operators is LMMAX =           5

 -----------------------------------------------------------------------------
|                                                                             |
|               ----> ADVICE to this user running VASP <----                  |
|                                                                             |
|     You have a (more or less) 'large supercell' and for larger cells it     |
|     might be more efficient to use real-space projection operators.         |
|     Therefore, try LREAL= Auto in the INCAR file.                           |
|     Mind: For very accurate calculation, you might also keep the            |
|     reciprocal projection scheme (i.e. LREAL=.FALSE.).                      |
|                                                                             |
 -----------------------------------------------------------------------------

  PAW_PBE C_h 06Feb2004                 :
 energy of atom  1       EATOM= -147.1560
 kinetic energy error for atom=    0.0031 (will be added to EATOM!!)
  PAW_PBE N_h 06Feb2004                 :
 energy of atom  2       EATOM= -264.5486
 kinetic energy error for atom=    0.0081 (will be added to EATOM!!)
  PAW_PBE O_h 06Feb2004                 :
 energy of atom  3       EATOM= -432.3788
 kinetic energy error for atom=    0.0171 (will be added to EATOM!!)
  PAW_PBE H_h 06Feb2004                 :
 energy of atom  4       EATOM=  -12.4884
 kinetic energy error for atom=    0.0006 (will be added to EATOM!!)


 POSCAR:  C  N  O  H
  positions in cartesian coordinates
  No initial velocities read in

 METAGGA = R2SCAN                                      LMAXTAU =  6    LMIXTAU =  F

 exchange correlation table for  LEXCH =        8
   RHO(1)=    0.500       N(1)  =     2000
   RHO(2)=  100.500       N(2)  =     4000

 VTST: version 4.1, (05/19/21)

 CHAIN: initializing optimizer
 
 OPT: Using VASP Dynamics algorithm
 CHAIN: Read ICHAIN            0

 POSCAR:  C  N  O  H
  positions in cartesian coordinates
  No initial velocities read in



--------------------------------------------------------------------------------------------------------


 ion  position               nearest neighbor table
   1  0.862  0.796  0.366-  15 1.10  17 1.10  13 1.10   3 1.51
   2  0.138  0.204  0.634-  16 1.10  18 1.10  14 1.10   4 1.51
   3  0.782  0.599  0.276-  21 1.10  19 1.10   9 1.46   1 1.51
   4  0.218  0.401  0.724-  22 1.10  20 1.10  10 1.46   2 1.51
   5  0.008  0.280  0.153-  11 1.24   7 1.34   9 1.35
   6  0.992  0.720  0.847-  12 1.24   8 1.34  10 1.35
   7  0.252  0.163  0.132-  23 1.02  25 1.03   5 1.34
   8  0.748  0.837  0.868-  24 1.02  26 1.03   6 1.34
   9  0.037  0.465  0.240-   5 1.35   3 1.46
  10  0.963  0.535  0.760-   6 1.35   4 1.46
  11  0.780  0.225  0.103-   5 1.24
  12  0.220  0.775  0.897-   6 1.24
  13  0.677  0.902  0.398-   1 1.10
  14  0.323  0.098  0.602-   2 1.10
  15  0.020  0.782  0.495-   1 1.10
  16  0.980  0.218  0.505-   2 1.10
  17  0.945  0.858  0.273-   1 1.10
  18  0.055  0.142  0.727-   2 1.10
  19  0.697  0.537  0.368-   3 1.10
  20  0.303  0.463  0.632-   4 1.10
  21  0.628  0.610  0.145-   3 1.10
  22  0.372  0.390  0.855-   4 1.10
  23  0.428  0.221  0.155-   7 1.02
  24  0.572  0.779  0.845-   8 1.02
  25  0.247  0.025  0.055-   7 1.03
  26  0.753  0.975  0.945-   8 1.03

  LATTYP: Found a triclinic cell.
 ALAT       =     5.0510000000
 B/A-ratio  =     2.1551506031
 C/A-ratio  =     2.0563667669
 COS(alpha) =     0.0114247620
 COS(beta)  =     0.4593389698
 COS(gamma) =     0.7792973105
  
  Lattice vectors:
  
 A1 = (  -5.0510000000,   0.0000000000,   0.0000000000)
 A2 = (  -8.4831700000,   6.8215500000,   0.0000000000)
 A3 = (  -4.7710200000,  -5.7438000000,  -7.2201000000)


Analysis of symmetry for initial positions (statically):
=====================================================================
 Subroutine PRICEL returns:
 Original cell was already a primitive cell.
 

 Routine SETGRP: Setting up the symmetry group for a 
 triclinic supercell.


 Subroutine GETGRP returns: Found  1 space group operations
 (whereof  1 operations were pure point group operations)
 out of a pool of  2 trial point group operations.


The static configuration has the point symmetry C_1 .


Analysis of symmetry for dynamics (positions and initial velocities):
=====================================================================
 Subroutine PRICEL returns:
 Original cell was already a primitive cell.
 

 Routine SETGRP: Setting up the symmetry group for a 
 triclinic supercell.


 Subroutine GETGRP returns: Found  1 space group operations
 (whereof  1 operations were pure point group operations)
 out of a pool of  2 trial point group operations.


The dynamic configuration has the point symmetry C_1 .


 Subroutine INISYM returns: Found  1 space group operations
 (whereof  1 operations are pure point group operations),
 and found     1 'primitive' translations


----------------------------------------------------------------------------------------

                                     Primitive cell                                     

  volume of cell :     248.7732

  direct lattice vectors                    reciprocal lattice vectors
     5.051000000  0.000000000  0.000000000     0.197980598 -0.046983007  0.045053615
     1.618830000  6.821550000  0.000000000    -0.000000000  0.146594249  0.021882239
    -1.898810000 -1.077750000  7.220100000     0.000000000  0.000000000  0.138502237

  length of vectors
     5.051000000  7.011002423  7.543001292     0.208407169  0.148218441  0.138502237

  position of ions in fractional coordinates (direct lattice)
     0.861972589  0.796445238  0.365859022
     0.138064667  0.203535027  0.634154269
     0.781578986  0.599200900  0.276319201
     0.218453392  0.400780539  0.723688095
     0.008079648  0.279705926  0.153298677
     0.991920352  0.720280294  0.846703236
     0.252468354  0.162825871  0.131697782
     0.747561775  0.837144037  0.868309565
     0.036678920  0.464558963  0.240074308
     0.963348325  0.535416572  0.759931229
     0.779667646  0.225134261  0.102897307
     0.220345002  0.774846955  0.897083248
     0.677140016  0.902413565  0.398399101
     0.322905155  0.097572764  0.601620467
     0.019738651  0.781948789  0.494963713
     0.980308668  0.218017261  0.505041485
     0.945103312  0.857539709  0.272613991
     0.054939063  0.142431463  0.727397938
     0.697329547  0.536766822  0.368335189
     0.302705369  0.463210509  0.631671772
     0.627873694  0.610106943  0.145092024
     0.372157345  0.389873471  0.854915837
     0.428225287  0.220651294  0.155046496
     0.571800867  0.779323034  0.844962680
     0.247154217  0.025305469  0.054523041
     0.752858552  0.974694531  0.945476959

  ion indices of the primitive-cell ions
   primitive index   ion index
                 1           1
                 2           2
                 3           3
                 4           4
                 5           5
                 6           6
                 7           7
                 8           8
                 9           9
                10          10
                11          11
                12          12
                13          13
                14          14
                15          15
                16          16
                17          17
                18          18
                19          19
                20          20
                21          21
                22          22
                23          23
                24          24
                25          25
                26          26

----------------------------------------------------------------------------------------



 KPOINTS: auto                                    

Automatic generation of k-mesh.
 Grid dimensions read from file:
 generate k-points for:    6    4    4

 Generating k-lattice:

  Cartesian coordinates                     Fractional coordinates (reciprocal lattice)
     0.032996766 -0.007830501  0.007508936     0.166666667 -0.000000000  0.000000000
    -0.000000000  0.036648562  0.005470560     0.000000000  0.250000000  0.000000000
     0.000000000  0.000000000  0.034625559     0.000000000  0.000000000  0.250000000

  Length of vectors
     0.034734528  0.037054610  0.034625559

  Shift w.r.t. Gamma in fractional coordinates (k-lattice)
     0.000000000  0.000000000  0.000000000

 
 Subroutine IBZKPT returns following result:
 ===========================================
 
 Found     52 irreducible k-points:
 
 Following reciprocal coordinates:
            Coordinates               Weight
  0.000000  0.000000  0.000000      1.000000
  0.166667  0.000000  0.000000      2.000000
  0.333333  0.000000  0.000000      2.000000
  0.500000  0.000000  0.000000      1.000000
  0.000000  0.250000  0.000000      2.000000
  0.166667  0.250000  0.000000      2.000000
  0.333333  0.250000  0.000000      2.000000
  0.500000  0.250000  0.000000      2.000000
 -0.333333  0.250000  0.000000      2.000000
 -0.166667  0.250000  0.000000      2.000000
  0.000000  0.500000  0.000000      1.000000
  0.166667  0.500000  0.000000      2.000000
  0.333333  0.500000  0.000000      2.000000
  0.500000  0.500000  0.000000      1.000000
  0.000000  0.000000  0.250000      2.000000
  0.166667  0.000000  0.250000      2.000000
  0.333333  0.000000  0.250000      2.000000
  0.500000  0.000000  0.250000      2.000000
 -0.333333  0.000000  0.250000      2.000000
 -0.166667  0.000000  0.250000      2.000000
  0.000000  0.250000  0.250000      2.000000
  0.166667  0.250000  0.250000      2.000000
  0.333333  0.250000  0.250000      2.000000
  0.500000  0.250000  0.250000      2.000000
 -0.333333  0.250000  0.250000      2.000000
 -0.166667  0.250000  0.250000      2.000000
  0.000000  0.500000  0.250000      2.000000
  0.166667  0.500000  0.250000      2.000000
  0.333333  0.500000  0.250000      2.000000
  0.500000  0.500000  0.250000      2.000000
 -0.333333  0.500000  0.250000      2.000000
 -0.166667  0.500000  0.250000      2.000000
  0.000000 -0.250000  0.250000      2.000000
  0.166667 -0.250000  0.250000      2.000000
  0.333333 -0.250000  0.250000      2.000000
  0.500000 -0.250000  0.250000      2.000000
 -0.333333 -0.250000  0.250000      2.000000
 -0.166667 -0.250000  0.250000      2.000000
  0.000000  0.000000  0.500000      1.000000
  0.166667  0.000000  0.500000      2.000000
  0.333333  0.000000  0.500000      2.000000
  0.500000  0.000000  0.500000      1.000000
  0.000000  0.250000  0.500000      2.000000
  0.166667  0.250000  0.500000      2.000000
  0.333333  0.250000  0.500000      2.000000
  0.500000  0.250000  0.500000      2.000000
 -0.333333  0.250000  0.500000      2.000000
 -0.166667  0.250000  0.500000      2.000000
  0.000000  0.500000  0.500000      1.000000
  0.166667  0.500000  0.500000      2.000000
  0.333333  0.500000  0.500000      2.000000
  0.500000  0.500000  0.500000      1.000000
 
 Following cartesian coordinates:
            Coordinates               Weight
  0.000000  0.000000  0.000000      1.000000
  0.032997 -0.007831  0.007509      2.000000
  0.065994 -0.015661  0.015018      2.000000
  0.098990 -0.023492  0.022527      1.000000
  0.000000  0.036649  0.005471      2.000000
  0.032997  0.028818  0.012979      2.000000
  0.065994  0.020988  0.020488      2.000000
  0.098990  0.013157  0.027997      2.000000
 -0.065994  0.052310 -0.009547      2.000000
 -0.032997  0.044479 -0.002038      2.000000
  0.000000  0.073297  0.010941      1.000000
  0.032997  0.065467  0.018450      2.000000
  0.065994  0.057636  0.025959      2.000000
  0.098990  0.049806  0.033468      1.000000
  0.000000  0.000000  0.034626      2.000000
  0.032997 -0.007831  0.042134      2.000000
  0.065994 -0.015661  0.049643      2.000000
  0.098990 -0.023492  0.057152      2.000000
 -0.065994  0.015661  0.019608      2.000000
 -0.032997  0.007831  0.027117      2.000000
  0.000000  0.036649  0.040096      2.000000
  0.032997  0.028818  0.047605      2.000000
  0.065994  0.020988  0.055114      2.000000
  0.098990  0.013157  0.062623      2.000000
 -0.065994  0.052310  0.025078      2.000000
 -0.032997  0.044479  0.032587      2.000000
  0.000000  0.073297  0.045567      2.000000
  0.032997  0.065467  0.053076      2.000000
  0.065994  0.057636  0.060585      2.000000
  0.098990  0.049806  0.068093      2.000000
 -0.065994  0.088958  0.030549      2.000000
 -0.032997  0.081128  0.038058      2.000000
  0.000000 -0.036649  0.029155      2.000000
  0.032997 -0.044479  0.036664      2.000000
  0.065994 -0.052310  0.044173      2.000000
  0.098990 -0.060140  0.051682      2.000000
 -0.065994 -0.020988  0.014137      2.000000
 -0.032997 -0.028818  0.021646      2.000000
  0.000000  0.000000  0.069251      1.000000
  0.032997 -0.007831  0.076760      2.000000
  0.065994 -0.015661  0.084269      2.000000
  0.098990 -0.023492  0.091778      1.000000
  0.000000  0.036649  0.074722      2.000000
  0.032997  0.028818  0.082231      2.000000
  0.065994  0.020988  0.089740      2.000000
  0.098990  0.013157  0.097248      2.000000
 -0.065994  0.052310  0.059704      2.000000
 -0.032997  0.044479  0.067213      2.000000
  0.000000  0.073297  0.080192      1.000000
  0.032997  0.065467  0.087701      2.000000
  0.065994  0.057636  0.095210      2.000000
  0.098990  0.049806  0.102719      1.000000
 


--------------------------------------------------------------------------------------------------------




 Dimension of arrays:
   k-points           NKPTS =     52   k-points in BZ     NKDIM =     52   number of bands    NBANDS=     52
   number of dos      NEDOS =    301   number of ions     NIONS =     26
   non local maximal  LDIM  =      4   non local SUM 2l+1 LMDIM =      8
   total plane-waves  NPLWV = 311040
   max r-space proj   IRMAX =      1   max aug-charges    IRDMAX=   9317
   dimension x,y,z NGX =    54 NGY =   72 NGZ =   80
   dimension x,y,z NGXF=   108 NGYF=  144 NGZF=  160
   support grid    NGXF=   108 NGYF=  144 NGZF=  160
   ions per type =               6   2   4  14
   NGX,Y,Z   is equivalent  to a cutoff of  17.77, 17.07, 17.63 a.u.
   NGXF,Y,Z  is equivalent  to a cutoff of  35.55, 34.15, 35.26 a.u.

 SYSTEM =  unknown system                          
 POSCAR =   C  N  O  H                             

 Startparameter for this run:
   NWRITE =      2    write-flag & timer
   PREC   = accura    normal or accurate (medium, high low for compatibility)
   ISTART =      0    job   : 0-new  1-cont  2-samecut
   ICHARG =      2    charge: 1-file 2-atom 10-const
   ISPIN  =      1    spin polarized calculation?
   LNONCOLLINEAR =      F non collinear calculations
   LSORBIT =      F    spin-orbit coupling
   INIWAV =      1    electr: 0-lowe 1-rand  2-diag
   LASPH  =      T    aspherical Exc in radial PAW
 Electronic Relaxation 1
   ENCUT  = 1000.0 eV  73.50 Ry    8.57 a.u.  13.02 18.08 19.45*2*pi/ulx,y,z
   ENINI  = 1000.0     initial cutoff
   ENAUG  = 1000.0 eV  augmentation charge cutoff
   NELM   =     60;   NELMIN=  2; NELMDL= -5     # of ELM steps 
   EDIFF  = 0.1E-06   stopping-criterion for ELM
   LREAL  =      F    real-space projection
   NLSPLINE    = F    spline interpolate recip. space projectors
   LCOMPAT=      F    compatible to vasp.4.4
   GGA_COMPAT  = T    GGA compatible to vasp.4.4-vasp.4.6
   LMAXPAW     = -100 max onsite density
   LMAXMIX     =    2 max onsite mixed and CHGCAR
   VOSKOWN=      0    Vosko Wilk Nusair interpolation
   ROPT   =    0.00000   0.00000   0.00000   0.00000
 Ionic relaxation
   EDIFFG = 0.1E-05   stopping-criterion for IOM
   NSW    =      0    number of steps for IOM
   NBLOCK =      1;   KBLOCK =      1    inner block; outer block 
   IBRION =     -1    ionic relax: 0-MD 1-quasi-New 2-CG
   NFREE  =      0    steps in history (QN), initial steepest desc. (CG)
   ISIF   =      0    stress and relaxation
   IWAVPR =     10    prediction:  0-non 1-charg 2-wave 3-comb
   ISYM   =      2    0-nonsym 1-usesym 2-fastsym
   LCORR  =      T    Harris-Foulkes like correction to forces

   POTIM  = 0.5000    time-step for ionic-motion
   TEIN   =    0.0    initial temperature
   TEBEG  =    0.0;   TEEND  =   0.0 temperature during run
   SMASS  =  -3.00    Nose mass-parameter (am)
   estimated Nose-frequenzy (Omega)   =  0.10E-29 period in steps = 0.13E+47 mass=  -0.583E-27a.u.
   SCALEE = 1.0000    scale energy and forces
   NPACO  =    256;   APACO  = 10.0  distance and # of slots for P.C.
   PSTRESS=    0.0 pullay stress

  Mass of Ions in am
   POMASS =  12.01 14.00 16.00  1.00
  Ionic Valenz
   ZVAL   =   4.00  5.00  6.00  1.00
  Atomic Wigner-Seitz radii
   RWIGS  =  -1.00 -1.00 -1.00 -1.00
  virtual crystal weights 
   VCA    =   1.00  1.00  1.00  1.00
   NELECT =      72.0000    total number of electrons
   NUPDOWN=      -1.0000    fix difference up-down

 DOS related values:
   EMIN   =  10.00;   EMAX   =-10.00  energy-range for DOS
   EFERMI =   0.00;   METHOD = LEGACY      
   ISMEAR =     0;   SIGMA  =   0.01  broadening in eV -4-tet -1-fermi 0-gaus

 Electronic relaxation 2 (details)
   IALGO  =     58    algorithm
   LDIAG  =      T    sub-space diagonalisation (order eigenvalues)
   LSUBROT=      F    optimize rotation matrix (better conditioning)
   TURBO    =      0    0=normal 1=particle mesh
   IRESTART =      0    0=no restart 2=restart with 2 vectors
   NREBOOT  =      0    no. of reboots
   NMIN     =      0    reboot dimension
   EREF     =   0.00    reference energy to select bands
   IMIX   =      4    mixing-type and parameters
     AMIX     =   0.40;   BMIX     =  1.00
     AMIX_MAG =   1.60;   BMIX_MAG =  1.00
     AMIN     =   0.10
     WC   =   100.;   INIMIX=   1;  MIXPRE=   1;  MAXMIX= -45

 Intra band minimization:
   WEIMIN = 0.0000     energy-eigenvalue tresh-hold
   EBREAK =  0.48E-09  absolut break condition
   DEPER  =   0.30     relativ break condition  

   TIME   =   0.40     timestep for ELM

  volume/ion in A,a.u.               =       9.57        64.57
  Fermi-wavevector in a.u.,A,eV,Ry     =   1.082890  2.046366 15.954890  1.172651
  Thomas-Fermi vector in A             =   2.218943

 Write flags
   LWAVE        =      F    write WAVECAR
   LDOWNSAMPLE  =      F    k-point downsampling of WAVECAR
   LCHARG       =      F    write CHGCAR
   LVTOT        =      F    write LOCPOT, total local potential
   LVHAR        =      F    write LOCPOT, Hartree potential only
   LELF         =      F    write electronic localiz. function (ELF)
   LORBIT       =      0    0 simple, 1 ext, 2 COOP (PROOUT), +10 PAW based schemes


 Dipole corrections
   LMONO  =      F    monopole corrections only (constant potential shift)
   LDIPOL =      F    correct potential (dipole corrections)
   IDIPOL =      0    1-x, 2-y, 3-z, 4-all directions 
   EPSILON=  1.0000000 bulk dielectric constant

 Exchange correlation treatment:
   GGA     =    --    GGA type
   LEXCH   =     8    internal setting for exchange type
   LIBXC   =     F    Libxc                    
   VOSKOWN =     0    Vosko Wilk Nusair interpolation
   LHFCALC =     F    Hartree Fock is set to
   LHFONE  =     F    Hartree Fock one center treatment
   AEXX    =    0.0000 exact exchange contribution

 Linear response parameters
   LEPSILON=     F    determine dielectric tensor
   LRPA    =     F    only Hartree local field effects (RPA)
   LNABLA  =     F    use nabla operator in PAW spheres
   LVEL    =     F    velocity operator in full k-point grid
   CSHIFT  =0.1000    complex shift for real part using Kramers Kronig
   OMEGAMAX=  -1.0    maximum frequency
   DEG_THRESHOLD= 0.2000000E-02 threshold for treating states as degnerate
   RTIME   =   -0.100 relaxation time in fs
  (WPLASMAI=    0.000 imaginary part of plasma frequency in eV, 0.658/RTIME)
   DFIELD  = 0.0000000 0.0000000 0.0000000 field for delta impulse in time

  Optional k-point grid parameters
   LKPOINTS_OPT  =     F    use optional k-point grid
   KPOINTS_OPT_MODE=     1    mode for optional k-point grid

 Orbital magnetization related:
   ORBITALMAG=     F  switch on orbital magnetization
   LCHIMAG   =     F  perturbation theory with respect to B field
   DQ        =  0.001000  dq finite difference perturbation B field
   LLRAUG    =     F  two centre corrections for induced B field
   LBONE     =     F  B-component reconstruction in AE one-centre
   LVGVCALC  =     T  calculate vGv susceptibility
   LVGVAPPL  =     F  apply vGv susceptibility instead of pGv for G=0

 Random number generation:
   RANDOM_GENERATOR = DEFAULT
   PCG_SEED         = not used


--------------------------------------------------------------------------------------------------------


 Static calculation
 charge density and potential will be updated during run
 non-spin polarized calculation
 Conjugate gradient for all bands (Freysoldt, et al. PRB 79, 241103 (2009))
 preconditioned conjugated gradient                                        
 perform sub-space diagonalisation
    before iterative eigenvector-optimisation
 modified Broyden-mixing scheme, WC =      100.0
 initial mixing is a Kerker type mixing with AMIX =  0.4000 and BMIX =      1.0000
 Hartree-type preconditioning will be used
 using additional bands           16
 reciprocal scheme for non local part
 use partial core corrections
 no Harris-corrections to forces 
 use gradient corrections 
 use of overlap-Matrix (Vanderbilt PP)
 Gauss-broadening in eV      SIGMA  =   0.01


--------------------------------------------------------------------------------------------------------


  energy-cutoff  :     1000.00
  volume of cell :      248.77
      direct lattice vectors                 reciprocal lattice vectors
     5.051000000  0.000000000  0.000000000     0.197980598 -0.046983007  0.045053615
     1.618830000  6.821550000  0.000000000    -0.000000000  0.146594249  0.021882239
    -1.898810000 -1.077750000  7.220100000     0.000000000  0.000000000  0.138502237

  length of vectors
     5.051000000  7.011002423  7.543001292     0.208407169  0.148218441  0.138502237



 k-points in units of 2pi/SCALE and weight: auto                                    
   0.00000000  0.00000000  0.00000000       0.010
   0.03299677 -0.00783050  0.00750894       0.021
   0.06599353 -0.01566100  0.01501787       0.021
   0.09899030 -0.02349150  0.02252681       0.010
   0.00000000  0.03664856  0.00547056       0.021
   0.03299677  0.02881806  0.01297950       0.021
   0.06599353  0.02098756  0.02048843       0.021
   0.09899030  0.01315706  0.02799737       0.021
  -0.06599353  0.05230956 -0.00954731       0.021
  -0.03299677  0.04447906 -0.00203838       0.021
   0.00000000  0.07329712  0.01094112       0.010
   0.03299677  0.06546662  0.01845006       0.021
   0.06599353  0.05763612  0.02595899       0.021
   0.09899030  0.04980562  0.03346793       0.010
   0.00000000  0.00000000  0.03462556       0.021
   0.03299677 -0.00783050  0.04213449       0.021
   0.06599353 -0.01566100  0.04964343       0.021
   0.09899030 -0.02349150  0.05715237       0.021
  -0.06599353  0.01566100  0.01960769       0.021
  -0.03299677  0.00783050  0.02711662       0.021
   0.00000000  0.03664856  0.04009612       0.021
   0.03299677  0.02881806  0.04760505       0.021
   0.06599353  0.02098756  0.05511399       0.021
   0.09899030  0.01315706  0.06262293       0.021
  -0.06599353  0.05230956  0.02507825       0.021
  -0.03299677  0.04447906  0.03258718       0.021
   0.00000000  0.07329712  0.04556668       0.021
   0.03299677  0.06546662  0.05307561       0.021
   0.06599353  0.05763612  0.06058455       0.021
   0.09899030  0.04980562  0.06809349       0.021
  -0.06599353  0.08895813  0.03054881       0.021
  -0.03299677  0.08112763  0.03805774       0.021
   0.00000000 -0.03664856  0.02915500       0.021
   0.03299677 -0.04447906  0.03666394       0.021
   0.06599353 -0.05230956  0.04417287       0.021
   0.09899030 -0.06014007  0.05168181       0.021
  -0.06599353 -0.02098756  0.01413713       0.021
  -0.03299677 -0.02881806  0.02164606       0.021
   0.00000000  0.00000000  0.06925112       0.010
   0.03299677 -0.00783050  0.07676005       0.021
   0.06599353 -0.01566100  0.08426899       0.021
   0.09899030 -0.02349150  0.09177793       0.010
   0.00000000  0.03664856  0.07472168       0.021
   0.03299677  0.02881806  0.08223061       0.021
   0.06599353  0.02098756  0.08973955       0.021
   0.09899030  0.01315706  0.09724849       0.021
  -0.06599353  0.05230956  0.05970381       0.021
  -0.03299677  0.04447906  0.06721274       0.021
   0.00000000  0.07329712  0.08019224       0.010
   0.03299677  0.06546662  0.08770117       0.021
   0.06599353  0.05763612  0.09521011       0.021
   0.09899030  0.04980562  0.10271905       0.010

 k-points in reciprocal lattice and weights: auto                                    
   0.00000000  0.00000000  0.00000000       0.010
   0.16666667  0.00000000  0.00000000       0.021
   0.33333333  0.00000000  0.00000000       0.021
   0.50000000  0.00000000  0.00000000       0.010
   0.00000000  0.25000000  0.00000000       0.021
   0.16666667  0.25000000  0.00000000       0.021
   0.33333333  0.25000000  0.00000000       0.021
   0.50000000  0.25000000  0.00000000       0.021
  -0.33333333  0.25000000  0.00000000       0.021
  -0.16666667  0.25000000  0.00000000       0.021
   0.00000000  0.50000000  0.00000000       0.010
   0.16666667  0.50000000  0.00000000       0.021
   0.33333333  0.50000000  0.00000000       0.021
   0.50000000  0.50000000  0.00000000       0.010
   0.00000000  0.00000000  0.25000000       0.021
   0.16666667  0.00000000  0.25000000       0.021
   0.33333333  0.00000000  0.25000000       0.021
   0.50000000  0.00000000  0.25000000       0.021
  -0.33333333  0.00000000  0.25000000       0.021
  -0.16666667  0.00000000  0.25000000       0.021
   0.00000000  0.25000000  0.25000000       0.021
   0.16666667  0.25000000  0.25000000       0.021
   0.33333333  0.25000000  0.25000000       0.021
   0.50000000  0.25000000  0.25000000       0.021
  -0.33333333  0.25000000  0.25000000       0.021
  -0.16666667  0.25000000  0.25000000       0.021
   0.00000000  0.50000000  0.25000000       0.021
   0.16666667  0.50000000  0.25000000       0.021
   0.33333333  0.50000000  0.25000000       0.021
   0.50000000  0.50000000  0.25000000       0.021
  -0.33333333  0.50000000  0.25000000       0.021
  -0.16666667  0.50000000  0.25000000       0.021
   0.00000000 -0.25000000  0.25000000       0.021
   0.16666667 -0.25000000  0.25000000       0.021
   0.33333333 -0.25000000  0.25000000       0.021
   0.50000000 -0.25000000  0.25000000       0.021
  -0.33333333 -0.25000000  0.25000000       0.021
  -0.16666667 -0.25000000  0.25000000       0.021
   0.00000000  0.00000000  0.50000000       0.010
   0.16666667  0.00000000  0.50000000       0.021
   0.33333333  0.00000000  0.50000000       0.021
   0.50000000  0.00000000  0.50000000       0.010
   0.00000000  0.25000000  0.50000000       0.021
   0.16666667  0.25000000  0.50000000       0.021
   0.33333333  0.25000000  0.50000000       0.021
   0.50000000  0.25000000  0.50000000       0.021
  -0.33333333  0.25000000  0.50000000       0.021
  -0.16666667  0.25000000  0.50000000       0.021
   0.00000000  0.50000000  0.50000000       0.010
   0.16666667  0.50000000  0.50000000       0.021
   0.33333333  0.50000000  0.50000000       0.021
   0.50000000  0.50000000  0.50000000       0.010

 position of ions in fractional coordinates (direct lattice) 
   0.86197259  0.79644524  0.36585902
   0.13806467  0.20353503  0.63415427
   0.78157899  0.59920090  0.27631920
   0.21845339  0.40078054  0.72368810
   0.00807965  0.27970593  0.15329868
   0.99192035  0.72028029  0.84670324
   0.25246835  0.16282587  0.13169778
   0.74756178  0.83714404  0.86830956
   0.03667892  0.46455896  0.24007431
   0.96334832  0.53541657  0.75993123
   0.77966765  0.22513426  0.10289731
   0.22034500  0.77484696  0.89708325
   0.67714002  0.90241356  0.39839910
   0.32290515  0.09757276  0.60162047
   0.01973865  0.78194879  0.49496371
   0.98030867  0.21801726  0.50504149
   0.94510331  0.85753971  0.27261399
   0.05493906  0.14243146  0.72739794
   0.69732955  0.53676682  0.36833519
   0.30270537  0.46321051  0.63167177
   0.62787369  0.61010694  0.14509202
   0.37215734  0.38987347  0.85491584
   0.42822529  0.22065129  0.15504650
   0.57180087  0.77932303  0.84496268
   0.24715422  0.02530547  0.05452304
   0.75285855  0.97469453  0.94547696

 position of ions in cartesian coordinates  (Angst):
   4.94843622  5.03868645  2.64153873
  -0.17728522  0.70496460  4.57865724
   4.39308219  3.78967588  1.99505226
   0.37805745  1.95398964  5.22510042
   0.20252159  1.74281031  1.10683178
   4.56847247  4.00089363  6.11328203
   1.28873600  0.96878754  0.95087115
   3.48237352  4.77479927  6.26928189
   0.48145171  2.91027211  1.73336051
   4.28965578  2.83335504  5.48677947
   4.10717294  1.42486705  0.74292884
   0.66391746  4.31882578  6.47703076
   4.12460418  5.72648462  2.87648135
   0.64658470  0.01720103  4.34375993
   0.42570004  4.80065562  3.57368751
   4.34549414  0.94290719  3.64645003
   5.64428566  5.55594027  1.96830028
  -0.87312095  0.18765022  5.25188585
   3.69174724  3.26460847  2.65941690
   1.07939921  2.47902940  4.56073336
   3.88354726  4.00550209  1.04757892
   0.88758288  1.73815583  6.17257783
   2.22575902  1.33808247  1.11945121
   2.54533410  4.40553251  6.10071505
   1.18581231  0.11386032  0.39366181
   3.58527219  5.62993968  6.82643819



--------------------------------------------------------------------------------------------------------


 k-point   1 :   0.0000 0.0000 0.0000  plane waves:   17851
 k-point   2 :   0.1667 0.0000 0.0000  plane waves:   17854
 k-point   3 :   0.3333 0.0000 0.0000  plane waves:   17868
 k-point   4 :   0.5000 0.0000 0.0000  plane waves:   17838
 k-point   5 :   0.0000 0.2500 0.0000  plane waves:   17836
 k-point   6 :   0.1667 0.2500 0.0000  plane waves:   17859
 k-point   7 :   0.3333 0.2500 0.0000  plane waves:   17872
 k-point   8 :   0.5000 0.2500 0.0000  plane waves:   17882
 k-point   9 :  -0.3333 0.2500 0.0000  plane waves:   17869
 k-point  10 :  -0.1667 0.2500 0.0000  plane waves:   17859
 k-point  11 :   0.0000 0.5000 0.0000  plane waves:   17850
 k-point  12 :   0.1667 0.5000 0.0000  plane waves:   17878
 k-point  13 :   0.3333 0.5000 0.0000  plane waves:   17889
 k-point  14 :   0.5000 0.5000 0.0000  plane waves:   17900
 k-point  15 :   0.0000 0.0000 0.2500  plane waves:   17825
 k-point  16 :   0.1667 0.0000 0.2500  plane waves:   17860
 k-point  17 :   0.3333 0.0000 0.2500  plane waves:   17860
 k-point  18 :   0.5000 0.0000 0.2500  plane waves:   17861
 k-point  19 :  -0.3333 0.0000 0.2500  plane waves:   17861
 k-point  20 :  -0.1667 0.0000 0.2500  plane waves:   17861
 k-point  21 :   0.0000 0.2500 0.2500  plane waves:   17856
 k-point  22 :   0.1667 0.2500 0.2500  plane waves:   17843
 k-point  23 :   0.3333 0.2500 0.2500  plane waves:   17859
 k-point  24 :   0.5000 0.2500 0.2500  plane waves:   17878
 k-point  25 :  -0.3333 0.2500 0.2500  plane waves:   17870
 k-point  26 :  -0.1667 0.2500 0.2500  plane waves:   17879
 k-point  27 :   0.0000 0.5000 0.2500  plane waves:   17856
 k-point  28 :   0.1667 0.5000 0.2500  plane waves:   17837
 k-point  29 :   0.3333 0.5000 0.2500  plane waves:   17867
 k-point  30 :   0.5000 0.5000 0.2500  plane waves:   17901
 k-point  31 :  -0.3333 0.5000 0.2500  plane waves:   17882
 k-point  32 :  -0.1667 0.5000 0.2500  plane waves:   17881
 k-point  33 :   0.0000-0.2500 0.2500  plane waves:   17846
 k-point  34 :   0.1667-0.2500 0.2500  plane waves:   17862
 k-point  35 :   0.3333-0.2500 0.2500  plane waves:   17873
 k-point  36 :   0.5000-0.2500 0.2500  plane waves:   17877
 k-point  37 :  -0.3333-0.2500 0.2500  plane waves:   17903
 k-point  38 :  -0.1667-0.2500 0.2500  plane waves:   17878
 k-point  39 :   0.0000 0.0000 0.5000  plane waves:   17824
 k-point  40 :   0.1667 0.0000 0.5000  plane waves:   17851
 k-point  41 :   0.3333 0.0000 0.5000  plane waves:   17848
 k-point  42 :   0.5000 0.0000 0.5000  plane waves:   17840
 k-point  43 :   0.0000 0.2500 0.5000  plane waves:   17833
 k-point  44 :   0.1667 0.2500 0.5000  plane waves:   17854
 k-point  45 :   0.3333 0.2500 0.5000  plane waves:   17882
 k-point  46 :   0.5000 0.2500 0.5000  plane waves:   17867
 k-point  47 :  -0.3333 0.2500 0.5000  plane waves:   17865
 k-point  48 :  -0.1667 0.2500 0.5000  plane waves:   17856
 k-point  49 :   0.0000 0.5000 0.5000  plane waves:   17818
 k-point  50 :   0.1667 0.5000 0.5000  plane waves:   17842
 k-point  51 :   0.3333 0.5000 0.5000  plane waves:   17873
 k-point  52 :   0.5000 0.5000 0.5000  plane waves:   17868

 maximum and minimum number of plane-waves per node :       577      532

 maximum number of plane-waves:     17903
 maximum index in each direction: 
   IXMAX=   13   IYMAX=   18   IZMAX=   19
   IXMIN=  -13   IYMIN=  -18   IZMIN=  -19


 parallel 3D FFT for wavefunctions:
    minimum data exchange during FFTs selected (reduces bandwidth)
 parallel 3D FFT for charge:
    minimum data exchange during FFTs selected (reduces bandwidth)


 total amount of memory used by VASP MPI-rank0    60514. kBytes
=======================================================================

   base      :      30000. kBytes
   nonl-proj :       7852. kBytes
   fftplans  :       1147. kBytes
   grid      :       2693. kBytes
   one-center:          3. kBytes
   wavefun   :      18819. kBytes

     INWAV:  cpu time      0.0001: real time      0.0003
 Broyden mixing: mesh for mixing (old mesh)
   NGX = 27   NGY = 37   NGZ = 39
  (NGX  =108   NGY  =144   NGZ  =160)
  gives a total of  38961 points

 initial charge density was supplied:
 charge density of overlapping atoms calculated
 number of electron      72.0000000 magnetization 
 keeping initial charge density in first step


--------------------------------------------------------------------------------------------------------


 Maximum index for augmentation-charges          464 (set IRDMAX)


--------------------------------------------------------------------------------------------------------


 First call to EWALD:  gamma=   0.282
 Maximum number of real-space cells 3x 3x 2
 Maximum number of reciprocal cells 2x 3x 3

    FEWALD:  cpu time      0.0020: real time      0.0019


--------------------------------------- Ionic step        1  -------------------------------------------




--------------------------------------- Iteration      1(   1)  ---------------------------------------


    POTLOK:  cpu time      0.0702: real time      0.0707
    SETDIJ:  cpu time      0.2690: real time      0.2692
    TRIAL :  cpu time      3.1599: real time      3.1621
    CORREC:  cpu time      0.0024: real time      0.0024
    --------------------------------------------
      LOOP:  cpu time      3.5145: real time      3.5173

 eigenvalue-minimisations  :  5408
 total energy-change (2. order) : 0.5958518E+03  (-0.5343197E+04)
 number of electron      72.0000000 magnetization 
 augmentation part       72.0000000 magnetization 

 Free energy of the ion-electron system (eV)
  ---------------------------------------------------
  alpha Z        PSCENC =        60.22020652
  Ewald energy   TEWEN  =     -1241.27643166
  -Hartree energ DENC   =     -1716.25921835
  -exchange      EXHF   =         0.00000000
  -V(xc)+E(xc)   XCENC  =       274.37757752
  PAW double counting   =      2442.05119508    -2442.12605429
  entropy T*S    EENTRO =        -0.00029276
  eigenvalues    EBANDS =       -97.40941463
  atomic energy  EATOM  =      3316.27426183
  ---------------------------------------------------
  free energy    TOTEN  =       595.85182926 eV

  energy without entropy =      595.85212202  energy(sigma->0) =      595.85197564


--------------------------------------------------------------------------------------------------------




--------------------------------------- Iteration      1(   2)  ---------------------------------------


    TRIAL :  cpu time      3.7056: real time      3.7070
    CORREC:  cpu time      0.0004: real time      0.0004
    --------------------------------------------
      LOOP:  cpu time      3.7215: real time      3.7380

 eigenvalue-minimisations  :  7328
 total energy-change (2. order) :-0.6748751E+03  (-0.6426272E+03)
 number of electron      72.0000000 magnetization 
 augmentation part       72.0000000 magnetization 

 Free energy of the ion-electron system (eV)
  ---------------------------------------------------
  alpha Z        PSCENC =        60.22020652
  Ewald energy   TEWEN  =     -1241.27643166
  -Hartree energ DENC   =     -1716.25921835
  -exchange      EXHF   =         0.00000000
  -V(xc)+E(xc)   XCENC  =       274.37757752
  PAW double counting   =      2442.05119508    -2442.12605429
  entropy T*S    EENTRO =        -0.00000000
  eigenvalues    EBANDS =      -772.28478124
  atomic energy  EATOM  =      3316.27426183
  ---------------------------------------------------
  free energy    TOTEN  =       -79.02324459 eV

  energy without entropy =      -79.02324459  energy(sigma->0) =      -79.02324459


--------------------------------------------------------------------------------------------------------




--------------------------------------- Iteration      1(   3)  ---------------------------------------


    TRIAL :  cpu time      3.4476: real time      3.4488
    CORREC:  cpu time      0.0007: real time      0.0007
    --------------------------------------------
      LOOP:  cpu time      3.4605: real time      3.4786

 eigenvalue-minimisations  :  6632
 total energy-change (2. order) :-0.1137186E+03  (-0.1125435E+03)
 number of electron      72.0000000 magnetization 
 augmentation part       72.0000000 magnetization 

 Free energy of the ion-electron system (eV)
  ---------------------------------------------------
  alpha Z        PSCENC =        60.22020652
  Ewald energy   TEWEN  =     -1241.27643166
  -Hartree energ DENC   =     -1716.25921835
  -exchange      EXHF   =         0.00000000
  -V(xc)+E(xc)   XCENC  =       274.37757752
  PAW double counting   =      2442.05119508    -2442.12605429
  entropy T*S    EENTRO =        -0.00000000
  eigenvalues    EBANDS =      -886.00333426
  atomic energy  EATOM  =      3316.27426183
  ---------------------------------------------------
  free energy    TOTEN  =      -192.74179761 eV

  energy without entropy =     -192.74179761  energy(sigma->0) =     -192.74179761


--------------------------------------------------------------------------------------------------------




--------------------------------------- Iteration      1(   4)  ---------------------------------------


    TRIAL :  cpu time      3.6352: real time      3.6369
    CORREC:  cpu time      0.0008: real time      0.0008
    --------------------------------------------
      LOOP:  cpu time      3.6491: real time      3.6670

 eigenvalue-minimisations  :  7256
 total energy-change (2. order) :-0.4366104E+01  (-0.4345295E+01)
 number of electron      72.0000000 magnetization 
 augmentation part       72.0000000 magnetization 

 Free energy of the ion-electron system (eV)
  ---------------------------------------------------
  alpha Z        PSCENC =        60.22020652
  Ewald energy   TEWEN  =     -1241.27643166
  -Hartree energ DENC   =     -1716.25921835
  -exchange      EXHF   =         0.00000000
  -V(xc)+E(xc)   XCENC  =       274.37757752
  PAW double counting   =      2442.05119508    -2442.12605429
  entropy T*S    EENTRO =        -0.00000000
  eigenvalues    EBANDS =      -890.36943830
  atomic energy  EATOM  =      3316.27426183
  ---------------------------------------------------
  free energy    TOTEN  =      -197.10790165 eV

  energy without entropy =     -197.10790165  energy(sigma->0) =     -197.10790165


--------------------------------------------------------------------------------------------------------




--------------------------------------- Iteration      1(   5)  ---------------------------------------


    TRIAL :  cpu time      3.7471: real time      3.7489
    CORREC:  cpu time      0.0007: real time      0.0007
    CHARGE:  cpu time      0.2511: real time      0.2526
    --------------------------------------------
      LOOP:  cpu time      4.0127: real time      4.0314

 eigenvalue-minimisations  :  7344
 total energy-change (2. order) :-0.1309281E+00  (-0.1308415E+00)
 number of electron      72.0000000 magnetization 
 augmentation part        0.2246846 magnetization 

 Free energy of the ion-electron system (eV)
  ---------------------------------------------------
  alpha Z        PSCENC =        60.22020652
  Ewald energy   TEWEN  =     -1241.27643166
  -Hartree energ DENC   =     -1716.25921835
  -exchange      EXHF   =         0.00000000
  -V(xc)+E(xc)   XCENC  =       274.37757752
  PAW double counting   =      2442.05119508    -2442.12605429
  entropy T*S    EENTRO =        -0.00000000
  eigenvalues    EBANDS =      -890.50036641
  atomic energy  EATOM  =      3316.27426183
  ---------------------------------------------------
  free energy    TOTEN  =      -197.23882976 eV

  energy without entropy =     -197.23882976  energy(sigma->0) =     -197.23882976


--------------------------------------------------------------------------------------------------------




--------------------------------------- Iteration      1(   6)  ---------------------------------------


    POTLOK:  cpu time      0.0522: real time      0.0522
    SETDIJ:  cpu time      0.2648: real time      0.2648
    TRIAL :  cpu time      2.4996: real time      2.5021
    CORREC:  cpu time      1.3197: real time      1.3206
    CHARGE:  cpu time      0.2382: real time      0.2382
    --------------------------------------------
      LOOP:  cpu time      4.3879: real time      4.4060

 eigenvalue-minimisations  :     0
 total energy-change (2. order) : 0.4569630E+02  (-0.9939833E+01)
 number of electron      72.0000000 magnetization 
 augmentation part        0.1586241 magnetization 

 Free energy of the ion-electron system (eV)
  ---------------------------------------------------
  alpha Z        PSCENC =        60.22020652
  Ewald energy   TEWEN  =     -1241.27643166
  -Hartree energ DENC   =     -2069.39632293
  -exchange      EXHF   =         0.00000000
  -V(xc)+E(xc)   XCENC  =       309.83168555
  PAW double counting   =     33596.14901632   -33599.04153583
  entropy T*S    EENTRO =        -0.00000000
  eigenvalues    EBANDS =      -524.30341315
  atomic energy  EATOM  =      3316.27426183
  ---------------------------------------------------
  free energy    TOTEN  =      -151.54253335 eV

  energy without entropy =     -151.54253335  energy(sigma->0) =     -151.54253335


--------------------------------------------------------------------------------------------------------




--------------------------------------- Iteration      1(   7)  ---------------------------------------


    POTLOK:  cpu time      0.0513: real time      0.0516
    SETDIJ:  cpu time      0.2657: real time      0.2657
    TRIAL :  cpu time      2.4817: real time      2.4827
    CORREC:  cpu time      1.3109: real time      1.3118
    CHARGE:  cpu time      0.2373: real time      0.2373
    --------------------------------------------
      LOOP:  cpu time      4.3751: real time      4.3776

 eigenvalue-minimisations  :     0
 total energy-change (2. order) :-0.9943475E+01  (-0.1269971E+01)
 number of electron      71.9999999 magnetization 
 augmentation part        0.1304921 magnetization 

 Free energy of the ion-electron system (eV)
  ---------------------------------------------------
  alpha Z        PSCENC =        60.22020652
  Ewald energy   TEWEN  =     -1241.27643166
  -Hartree energ DENC   =     -1915.34243926
  -exchange      EXHF   =         0.00000000
  -V(xc)+E(xc)   XCENC  =       297.63367995
  PAW double counting   =     40830.77550526   -40831.68493309
  entropy T*S    EENTRO =        -0.00000000
  eigenvalues    EBANDS =      -678.08585751
  atomic energy  EATOM  =      3316.27426183
  ---------------------------------------------------
  free energy    TOTEN  =      -161.48600796 eV

  energy without entropy =     -161.48600796  energy(sigma->0) =     -161.48600796


--------------------------------------------------------------------------------------------------------




--------------------------------------- Iteration      1(   8)  ---------------------------------------


    POTLOK:  cpu time      0.0516: real time      0.0516
    SETDIJ:  cpu time      0.2649: real time      0.2649
    TRIAL :  cpu time      2.8259: real time      2.8274
    CORREC:  cpu time      1.3909: real time      1.3916
    CHARGE:  cpu time      0.2374: real time      0.2377
    --------------------------------------------
      LOOP:  cpu time      4.7857: real time      4.8030

 eigenvalue-minimisations  :     0
 total energy-change (2. order) :-0.1275442E+01  (-0.4547109E+00)
 number of electron      71.9999999 magnetization 
 augmentation part        0.1400383 magnetization 

 Free energy of the ion-electron system (eV)
  ---------------------------------------------------
  alpha Z        PSCENC =        60.22020652
  Ewald energy   TEWEN  =     -1241.27643166
  -Hartree energ DENC   =     -1918.81814046
  -exchange      EXHF   =         0.00000000
  -V(xc)+E(xc)   XCENC  =       297.61231332
  PAW double counting   =     42625.62179024   -42626.39931345
  entropy T*S    EENTRO =        -0.00000000
  eigenvalues    EBANDS =      -675.99613640
  atomic energy  EATOM  =      3316.27426183
  ---------------------------------------------------
  free energy    TOTEN  =      -162.76145007 eV

  energy without entropy =     -162.76145007  energy(sigma->0) =     -162.76145007


--------------------------------------------------------------------------------------------------------




--------------------------------------- Iteration      1(   9)  ---------------------------------------


    POTLOK:  cpu time      0.0512: real time      0.0512
    SETDIJ:  cpu time      0.2650: real time      0.2650
    TRIAL :  cpu time      2.7564: real time      2.7579
    CORREC:  cpu time      1.4587: real time      1.4592
    CHARGE:  cpu time      0.2378: real time      0.2378
    --------------------------------------------
      LOOP:  cpu time      4.7825: real time      4.8001

 eigenvalue-minimisations  :     0
 total energy-change (2. order) :-0.4543718E+00  (-0.1429060E+00)
 number of electron      71.9999999 magnetization 
 augmentation part        0.1475689 magnetization 

 Free energy of the ion-electron system (eV)
  ---------------------------------------------------
  alpha Z        PSCENC =        60.22020652
  Ewald energy   TEWEN  =     -1241.27643166
  -Hartree energ DENC   =     -1914.15870719
  -exchange      EXHF   =         0.00000000
  -V(xc)+E(xc)   XCENC  =       297.33139881
  PAW double counting   =     44530.03138168   -44530.75932835
  entropy T*S    EENTRO =        -0.00000000
  eigenvalues    EBANDS =      -680.87860346
  atomic energy  EATOM  =      3316.27426183
  ---------------------------------------------------
  free energy    TOTEN  =      -163.21582183 eV

  energy without entropy =     -163.21582183  energy(sigma->0) =     -163.21582183


--------------------------------------------------------------------------------------------------------




--------------------------------------- Iteration      1(  10)  ---------------------------------------


    POTLOK:  cpu time      0.0508: real time      0.0512
    SETDIJ:  cpu time      0.2647: real time      0.2648
    TRIAL :  cpu time      2.4786: real time      2.4794
    CORREC:  cpu time      1.3349: real time      1.3359
    CHARGE:  cpu time      0.2891: real time      0.2891
    --------------------------------------------
      LOOP:  cpu time      4.4472: real time      4.4496

 eigenvalue-minimisations  :     0
 total energy-change (2. order) :-0.1427638E+00  (-0.4129069E-01)
 number of electron      72.0000000 magnetization 
 augmentation part        0.1497580 magnetization 

 Free energy of the ion-electron system (eV)
  ---------------------------------------------------
  alpha Z        PSCENC =        60.22020652
  Ewald energy   TEWEN  =     -1241.27643166
  -Hartree energ DENC   =     -1909.60273103
  -exchange      EXHF   =         0.00000000
  -V(xc)+E(xc)   XCENC  =       297.07530938
  PAW double counting   =     44519.79375520   -44520.54703221
  entropy T*S    EENTRO =        -0.00000000
  eigenvalues    EBANDS =      -685.29592364
  atomic energy  EATOM  =      3316.27426183
  ---------------------------------------------------
  free energy    TOTEN  =      -163.35858561 eV

  energy without entropy =     -163.35858561  energy(sigma->0) =     -163.35858561


--------------------------------------------------------------------------------------------------------




--------------------------------------- Iteration      1(  11)  ---------------------------------------


    POTLOK:  cpu time      0.0540: real time      0.0540
    SETDIJ:  cpu time      0.2629: real time      0.2629
    TRIAL :  cpu time      2.5581: real time      2.5593
    CORREC:  cpu time      1.3075: real time      1.3081
    CHARGE:  cpu time      0.2379: real time      0.2379
    --------------------------------------------
      LOOP:  cpu time      4.4342: real time      4.4519

 eigenvalue-minimisations  :     0
 total energy-change (2. order) :-0.4127561E-01  (-0.1055929E-01)
 number of electron      72.0000000 magnetization 
 augmentation part        0.1492289 magnetization 

 Free energy of the ion-electron system (eV)
  ---------------------------------------------------
  alpha Z        PSCENC =        60.22020652
  Ewald energy   TEWEN  =     -1241.27643166
  -Hartree energ DENC   =     -1908.74351522
  -exchange      EXHF   =         0.00000000
  -V(xc)+E(xc)   XCENC  =       297.01476388
  PAW double counting   =     44037.09314000   -44037.87935961
  entropy T*S    EENTRO =        -0.00000000
  eigenvalues    EBANDS =      -686.10292696
  atomic energy  EATOM  =      3316.27426183
  ---------------------------------------------------
  free energy    TOTEN  =      -163.39986122 eV

  energy without entropy =     -163.39986122  energy(sigma->0) =     -163.39986122


--------------------------------------------------------------------------------------------------------




--------------------------------------- Iteration      1(  12)  ---------------------------------------


    POTLOK:  cpu time      0.0509: real time      0.0509
    SETDIJ:  cpu time      0.2652: real time      0.2656
    TRIAL :  cpu time      2.5016: real time      2.5025
    CORREC:  cpu time      1.3084: real time      1.3089
    CHARGE:  cpu time      0.2379: real time      0.2382
    --------------------------------------------
      LOOP:  cpu time      4.3768: real time      4.3954

 eigenvalue-minimisations  :     0
 total energy-change (2. order) :-0.1055116E-01  (-0.2667275E-02)
 number of electron      72.0000000 magnetization 
 augmentation part        0.1486806 magnetization 

 Free energy of the ion-electron system (eV)
  ---------------------------------------------------
  alpha Z        PSCENC =        60.22020652
  Ewald energy   TEWEN  =     -1241.27643166
  -Hartree energ DENC   =     -1908.13692379
  -exchange      EXHF   =         0.00000000
  -V(xc)+E(xc)   XCENC  =       296.95982965
  PAW double counting   =     43814.11875090   -43814.90140694
  entropy T*S    EENTRO =        -0.00000000
  eigenvalues    EBANDS =      -686.66869890
  atomic energy  EATOM  =      3316.27426183
  ---------------------------------------------------
  free energy    TOTEN  =      -163.41041238 eV

  energy without entropy =     -163.41041238  energy(sigma->0) =     -163.41041238


--------------------------------------------------------------------------------------------------------




--------------------------------------- Iteration      1(  13)  ---------------------------------------


    POTLOK:  cpu time      0.0511: real time      0.0511
    SETDIJ:  cpu time      0.2650: real time      0.2650
    TRIAL :  cpu time      2.5785: real time      2.5799
    CORREC:  cpu time      1.3074: real time      1.3081
    CHARGE:  cpu time      0.2468: real time      0.2469
    --------------------------------------------
      LOOP:  cpu time      4.4610: real time      4.4799

 eigenvalue-minimisations  :     0
 total energy-change (2. order) :-0.2664485E-02  (-0.6859918E-03)
 number of electron      72.0000000 magnetization 
 augmentation part        0.1485827 magnetization 

 Free energy of the ion-electron system (eV)
  ---------------------------------------------------
  alpha Z        PSCENC =        60.22020652
  Ewald energy   TEWEN  =     -1241.27643166
  -Hartree energ DENC   =     -1907.84087108
  -exchange      EXHF   =         0.00000000
  -V(xc)+E(xc)   XCENC  =       296.93390485
  PAW double counting   =     43680.54092544   -43681.31966912
  entropy T*S    EENTRO =        -0.00000000
  eigenvalues    EBANDS =      -686.94540364
  atomic energy  EATOM  =      3316.27426183
  ---------------------------------------------------
  free energy    TOTEN  =      -163.41307687 eV

  energy without entropy =     -163.41307687  energy(sigma->0) =     -163.41307687


--------------------------------------------------------------------------------------------------------




--------------------------------------- Iteration      1(  14)  ---------------------------------------


    POTLOK:  cpu time      0.0509: real time      0.0509
    SETDIJ:  cpu time      0.2646: real time      0.2650
    TRIAL :  cpu time      2.4794: real time      2.4803
    CORREC:  cpu time      1.3067: real time      1.3072
    CHARGE:  cpu time      0.2368: real time      0.2372
    --------------------------------------------
      LOOP:  cpu time      4.3513: real time      4.3693

 eigenvalue-minimisations  :     0
 total energy-change (2. order) :-0.6854502E-03  (-0.1959769E-03)
 number of electron      72.0000000 magnetization 
 augmentation part        0.1485758 magnetization 

 Free energy of the ion-electron system (eV)
  ---------------------------------------------------
  alpha Z        PSCENC =        60.22020652
  Ewald energy   TEWEN  =     -1241.27643166
  -Hartree energ DENC   =     -1907.79642999
  -exchange      EXHF   =         0.00000000
  -V(xc)+E(xc)   XCENC  =       296.92681658
  PAW double counting   =     43584.36460994   -43585.14323926
  entropy T*S    EENTRO =        -0.00000000
  eigenvalues    EBANDS =      -686.98355628
  atomic energy  EATOM  =      3316.27426183
  ---------------------------------------------------
  free energy    TOTEN  =      -163.41376232 eV

  energy without entropy =     -163.41376232  energy(sigma->0) =     -163.41376232


--------------------------------------------------------------------------------------------------------




--------------------------------------- Iteration      1(  15)  ---------------------------------------


    POTLOK:  cpu time      0.0509: real time      0.0509
    SETDIJ:  cpu time      0.2647: real time      0.2648
    TRIAL :  cpu time      2.4750: real time      2.4761
    CORREC:  cpu time      1.3088: real time      1.3097
    CHARGE:  cpu time      0.2374: real time      0.2374
    --------------------------------------------
      LOOP:  cpu time      4.3652: real time      4.3677

 eigenvalue-minimisations  :     0
 total energy-change (2. order) :-0.1953965E-03  (-0.6010299E-04)
 number of electron      72.0000000 magnetization 
 augmentation part        0.1485973 magnetization 

 Free energy of the ion-electron system (eV)
  ---------------------------------------------------
  alpha Z        PSCENC =        60.22020652
  Ewald energy   TEWEN  =     -1241.27643166
  -Hartree energ DENC   =     -1907.85261373
  -exchange      EXHF   =         0.00000000
  -V(xc)+E(xc)   XCENC  =       296.92954685
  PAW double counting   =     43518.29866152   -43519.07751226
  entropy T*S    EENTRO =        -0.00000000
  eigenvalues    EBANDS =      -686.93007679
  atomic energy  EATOM  =      3316.27426183
  ---------------------------------------------------
  free energy    TOTEN  =      -163.41395771 eV

  energy without entropy =     -163.41395771  energy(sigma->0) =     -163.41395771


--------------------------------------------------------------------------------------------------------




--------------------------------------- Iteration      1(  16)  ---------------------------------------


    POTLOK:  cpu time      0.0510: real time      0.0510
    SETDIJ:  cpu time      0.2649: real time      0.2649
    TRIAL :  cpu time      2.4857: real time      2.4873
    CORREC:  cpu time      1.3077: real time      1.3083
    CHARGE:  cpu time      0.2376: real time      0.2376
    --------------------------------------------
      LOOP:  cpu time      4.3621: real time      4.3779

 eigenvalue-minimisations  :     0
 total energy-change (2. order) :-0.6036983E-04  (-0.1995484E-04)
 number of electron      72.0000000 magnetization 
 augmentation part        0.1485937 magnetization 

 Free energy of the ion-electron system (eV)
  ---------------------------------------------------
  alpha Z        PSCENC =        60.22020652
  Ewald energy   TEWEN  =     -1241.27643166
  -Hartree energ DENC   =     -1907.86403885
  -exchange      EXHF   =         0.00000000
  -V(xc)+E(xc)   XCENC  =       296.93031529
  PAW double counting   =     43492.87544924   -43493.65444491
  entropy T*S    EENTRO =        -0.00000000
  eigenvalues    EBANDS =      -686.91933553
  atomic energy  EATOM  =      3316.27426183
  ---------------------------------------------------
  free energy    TOTEN  =      -163.41401808 eV

  energy without entropy =     -163.41401808  energy(sigma->0) =     -163.41401808


--------------------------------------------------------------------------------------------------------




--------------------------------------- Iteration      1(  17)  ---------------------------------------


    POTLOK:  cpu time      0.0510: real time      0.0510
    SETDIJ:  cpu time      0.2644: real time      0.2648
    TRIAL :  cpu time      2.5797: real time      2.5808
    CORREC:  cpu time      1.3094: real time      1.3104
    CHARGE:  cpu time      0.2382: real time      0.2382
    --------------------------------------------
      LOOP:  cpu time      4.4541: real time      4.4740

 eigenvalue-minimisations  :     0
 total energy-change (2. order) :-0.2013474E-04  (-0.6492815E-05)
 number of electron      72.0000000 magnetization 
 augmentation part        0.1485726 magnetization 

 Free energy of the ion-electron system (eV)
  ---------------------------------------------------
  alpha Z        PSCENC =        60.22020652
  Ewald energy   TEWEN  =     -1241.27643166
  -Hartree energ DENC   =     -1907.87976868
  -exchange      EXHF   =         0.00000000
  -V(xc)+E(xc)   XCENC  =       296.93125733
  PAW double counting   =     43496.53173071   -43497.31064832
  entropy T*S    EENTRO =        -0.00000000
  eigenvalues    EBANDS =      -686.90464595
  atomic energy  EATOM  =      3316.27426183
  ---------------------------------------------------
  free energy    TOTEN  =      -163.41403822 eV

  energy without entropy =     -163.41403822  energy(sigma->0) =     -163.41403822


--------------------------------------------------------------------------------------------------------




--------------------------------------- Iteration      1(  18)  ---------------------------------------


    POTLOK:  cpu time      0.0514: real time      0.0514
    SETDIJ:  cpu time      0.2646: real time      0.2646
    TRIAL :  cpu time      2.4882: real time      2.4895
    CORREC:  cpu time      1.3177: real time      1.3183
    CHARGE:  cpu time      0.2739: real time      0.2739
    --------------------------------------------
      LOOP:  cpu time      4.4247: real time      4.4269

 eigenvalue-minimisations  :     0
 total energy-change (2. order) :-0.6409777E-05  (-0.1921541E-05)
 number of electron      72.0000000 magnetization 
 augmentation part        0.1485604 magnetization 

 Free energy of the ion-electron system (eV)
  ---------------------------------------------------
  alpha Z        PSCENC =        60.22020652
  Ewald energy   TEWEN  =     -1241.27643166
  -Hartree energ DENC   =     -1907.89531660
  -exchange      EXHF   =         0.00000000
  -V(xc)+E(xc)   XCENC  =       296.93264305
  PAW double counting   =     43508.94057512   -43509.71931098
  entropy T*S    EENTRO =        -0.00000000
  eigenvalues    EBANDS =      -686.89067189
  atomic energy  EATOM  =      3316.27426183
  ---------------------------------------------------
  free energy    TOTEN  =      -163.41404463 eV

  energy without entropy =     -163.41404463  energy(sigma->0) =     -163.41404463


--------------------------------------------------------------------------------------------------------




--------------------------------------- Iteration      1(  19)  ---------------------------------------


    POTLOK:  cpu time      0.0510: real time      0.0510
    SETDIJ:  cpu time      0.2653: real time      0.2658
    TRIAL :  cpu time      2.4755: real time      2.4765
    CORREC:  cpu time      1.3059: real time      1.3065
    CHARGE:  cpu time      0.2371: real time      0.2376
    --------------------------------------------
      LOOP:  cpu time      4.3498: real time      4.3659

 eigenvalue-minimisations  :     0
 total energy-change (2. order) :-0.1921835E-05  (-0.5829769E-06)
 number of electron      72.0000000 magnetization 
 augmentation part        0.1485616 magnetization 

 Free energy of the ion-electron system (eV)
  ---------------------------------------------------
  alpha Z        PSCENC =        60.22020652
  Ewald energy   TEWEN  =     -1241.27643166
  -Hartree energ DENC   =     -1907.89346720
  -exchange      EXHF   =         0.00000000
[...]
     31      -3.1890      2.00000
     32      -2.9751      2.00000
     33      -2.8422      2.00000
     34      -2.6308      2.00000
     35      -2.3957      2.00000
     36      -2.2385      2.00000
     37       4.6094      0.00000
     38       4.7412      0.00000
     39       5.3059      0.00000
     40       5.7461      0.00000
     41       5.9816      0.00000
     42       6.2313      0.00000
     43       6.4166      0.00000
     44       7.1600      0.00000
     45       7.2228      0.00000
     46       7.4324      0.00000
     47       8.0186      0.00000
     48       8.1961      0.00000
     49       8.2578      0.00000
     50       8.5846      0.00000
     51       9.1879      0.00000
     52       9.4842      0.00000

 k-point    48 :      -0.1667    0.2500    0.5000
  band No.  band energies     occupation 
      1     -24.5862      2.00000
      2     -24.5615      2.00000
      3     -22.1641      2.00000
      4     -22.1012      2.00000
      5     -19.2420      2.00000
      6     -19.1713      2.00000
      7     -15.4784      2.00000
      8     -15.4086      2.00000
      9     -12.3805      2.00000
     10     -12.1260      2.00000
     11     -10.7391      2.00000
     12     -10.4536      2.00000
     13      -9.8616      2.00000
     14      -9.6494      2.00000
     15      -8.8597      2.00000
     16      -8.2188      2.00000
     17      -8.1001      2.00000
     18      -7.8951      2.00000
     19      -7.2960      2.00000
     20      -6.5560      2.00000
     21      -6.4220      2.00000
     22      -6.4058      2.00000
     23      -5.7524      2.00000
     24      -5.6654      2.00000
     25      -5.3390      2.00000
     26      -5.1409      2.00000
     27      -4.6121      2.00000
     28      -4.4965      2.00000
     29      -4.4201      2.00000
     30      -4.2196      2.00000
     31      -3.2193      2.00000
     32      -2.8485      2.00000
     33      -2.7389      2.00000
     34      -2.5874      2.00000
     35      -2.3214      2.00000
     36      -2.2038      2.00000
     37       4.3688      0.00000
     38       4.6644      0.00000
     39       5.1824      0.00000
     40       5.3362      0.00000
     41       5.6484      0.00000
     42       6.2867      0.00000
     43       6.7161      0.00000
     44       7.0159      0.00000
     45       7.3262      0.00000
     46       7.7474      0.00000
     47       8.0763      0.00000
     48       8.5028      0.00000
     49       8.6340      0.00000
     50       8.7354      0.00000
     51       8.8693      0.00000
     52       9.3730      0.00000

 k-point    49 :       0.0000    0.5000    0.5000
  band No.  band energies     occupation 
      1     -24.5860      2.00000
      2     -24.5724      2.00000
      3     -22.1735      2.00000
      4     -22.0993      2.00000
      5     -19.1832      2.00000
      6     -19.1539      2.00000
      7     -15.4668      2.00000
      8     -15.4203      2.00000
      9     -12.3348      2.00000
     10     -12.2728      2.00000
     11     -10.7330      2.00000
     12     -10.5755      2.00000
     13      -9.8609      2.00000
     14      -9.7669      2.00000
     15      -8.8639      2.00000
     16      -8.2531      2.00000
     17      -8.0403      2.00000
     18      -7.9884      2.00000
     19      -7.2150      2.00000
     20      -6.4170      2.00000
     21      -6.3278      2.00000
     22      -6.3216      2.00000
     23      -5.7742      2.00000
     24      -5.5438      2.00000
     25      -5.2273      2.00000
     26      -5.1653      2.00000
     27      -4.6950      2.00000
     28      -4.6175      2.00000
     29      -4.3526      2.00000
     30      -4.3317      2.00000
     31      -3.1829      2.00000
     32      -2.7649      2.00000
     33      -2.6283      2.00000
     34      -2.6171      2.00000
     35      -2.2560      2.00000
     36      -2.2098      2.00000
     37       4.3106      0.00000
     38       4.6104      0.00000
     39       5.1424      0.00000
     40       5.2947      0.00000
     41       5.5651      0.00000
     42       5.6826      0.00000
     43       6.8547      0.00000
     44       6.9059      0.00000
     45       7.7693      0.00000
     46       7.8521      0.00000
     47       8.1054      0.00000
     48       8.3781      0.00000
     49       8.8675      0.00000
     50       9.0472      0.00000
     51       9.1520      0.00000
     52       9.4150      0.00000

 k-point    50 :       0.1667    0.5000    0.5000
  band No.  band energies     occupation 
      1     -24.5811      2.00000
      2     -24.5663      2.00000
      3     -22.1683      2.00000
      4     -22.0986      2.00000
      5     -19.2317      2.00000
      6     -19.1801      2.00000
      7     -15.4676      2.00000
      8     -15.4202      2.00000
      9     -12.3032      2.00000
     10     -12.2204      2.00000
     11     -10.6555      2.00000
     12     -10.5148      2.00000
     13      -9.7758      2.00000
     14      -9.7263      2.00000
     15      -8.8887      2.00000
     16      -8.2496      2.00000
     17      -8.0635      2.00000
     18      -7.9274      2.00000
     19      -7.3218      2.00000
     20      -6.5376      2.00000
     21      -6.3687      2.00000
     22      -6.3004      2.00000
     23      -5.8343      2.00000
     24      -5.6226      2.00000
     25      -5.3170      2.00000
     26      -5.1137      2.00000
     27      -4.6820      2.00000
     28      -4.6164      2.00000
     29      -4.3355      2.00000
     30      -4.3027      2.00000
     31      -3.1867      2.00000
     32      -2.8362      2.00000
     33      -2.7440      2.00000
     34      -2.5753      2.00000
     35      -2.2755      2.00000
     36      -2.2288      2.00000
     37       4.3986      0.00000
     38       4.6663      0.00000
     39       5.1209      0.00000
     40       5.4366      0.00000
     41       5.7736      0.00000
     42       5.8381      0.00000
     43       6.7466      0.00000
     44       6.8686      0.00000
     45       7.5004      0.00000
     46       7.8749      0.00000
     47       8.0207      0.00000
     48       8.2996      0.00000
     49       8.7524      0.00000
     50       8.9156      0.00000
     51       9.1372      0.00000
     52       9.4456      0.00000

 k-point    51 :       0.3333    0.5000    0.5000
  band No.  band energies     occupation 
      1     -24.5708      2.00000
      2     -24.5541      2.00000
      3     -22.1571      2.00000
      4     -22.0975      2.00000
      5     -19.3165      2.00000
      6     -19.2423      2.00000
      7     -15.4636      2.00000
      8     -15.4256      2.00000
      9     -12.2237      2.00000
     10     -12.1539      2.00000
     11     -10.5013      2.00000
     12     -10.4190      2.00000
     13      -9.6045      2.00000
     14      -9.5266      2.00000
     15      -8.8589      2.00000
     16      -8.1940      2.00000
     17      -8.0711      2.00000
     18      -7.8710      2.00000
     19      -7.6459      2.00000
     20      -6.9182      2.00000
     21      -6.4057      2.00000
     22      -6.3121      2.00000
     23      -5.9394      2.00000
     24      -5.7798      2.00000
     25      -5.3633      2.00000
     26      -5.1017      2.00000
     27      -4.6560      2.00000
     28      -4.6174      2.00000
     29      -4.3123      2.00000
     30      -4.2224      2.00000
     31      -3.1701      2.00000
     32      -2.9384      2.00000
     33      -2.8505      2.00000
     34      -2.6175      2.00000
     35      -2.3247      2.00000
     36      -2.2859      2.00000
     37       4.5507      0.00000
     38       4.7571      0.00000
     39       5.2437      0.00000
     40       5.7276      0.00000
     41       6.0727      0.00000
     42       6.3139      0.00000
     43       6.5784      0.00000
     44       6.7704      0.00000
     45       7.2070      0.00000
     46       7.4058      0.00000
     47       7.7340      0.00000
     48       8.3381      0.00000
     49       8.5807      0.00000
     50       8.8448      0.00000
     51       8.9805      0.00000
     52       9.3432      0.00000

 k-point    52 :       0.5000    0.5000    0.5000
  band No.  band energies     occupation 
      1     -24.5655      2.00000
      2     -24.5481      2.00000
      3     -22.1511      2.00000
      4     -22.0973      2.00000
      5     -19.3562      2.00000
      6     -19.2749      2.00000
      7     -15.4573      2.00000
      8     -15.4324      2.00000
      9     -12.1588      2.00000
     10     -12.1557      2.00000
     11     -10.4240      2.00000
     12     -10.3914      2.00000
     13      -9.4807      2.00000
     14      -9.4286      2.00000
     15      -8.6339      2.00000
     16      -8.2273      2.00000
     17      -8.1057      2.00000
     18      -7.8795      2.00000
     19      -7.8050      2.00000
     20      -7.2399      2.00000
     21      -6.4191      2.00000
     22      -6.3246      2.00000
     23      -5.9794      2.00000
     24      -5.8550      2.00000
     25      -5.3565      2.00000
     26      -5.1115      2.00000
     27      -4.6315      2.00000
     28      -4.6287      2.00000
     29      -4.3014      2.00000
     30      -4.1773      2.00000
     31      -3.1345      2.00000
     32      -3.0039      2.00000
     33      -2.8818      2.00000
     34      -2.6436      2.00000
     35      -2.3789      2.00000
     36      -2.3010      2.00000
     37       4.6063      0.00000
     38       4.8088      0.00000
     39       5.3908      0.00000
     40       5.8660      0.00000
     41       6.1352      0.00000
     42       6.4418      0.00000
     43       6.8251      0.00000
     44       6.8629      0.00000
     45       6.9723      0.00000
     46       7.0978      0.00000
     47       7.5807      0.00000
     48       8.1061      0.00000
     49       8.5628      0.00000
     50       8.7995      0.00000
     51       8.9388      0.00000
     52       9.6510      0.00000


--------------------------------------------------------------------------------------------------------


 soft charge-density along one line, spin component           1
         0         1         2         3         4         5         6         7         8         9
 total charge-density along one line

 pseudopotential strength for first ion, spin component:           1
 12.466  20.972  -0.002  -0.001  -0.002  -0.004  -0.001  -0.004
 20.972  35.282  -0.004  -0.001  -0.003  -0.007  -0.002  -0.006
 -0.002  -0.004  -3.171  -0.000   0.000  -5.673   0.000   0.000
 -0.001  -0.001  -0.000  -3.171  -0.000   0.000  -5.673  -0.000
 -0.002  -0.003   0.000  -0.000  -3.171   0.000  -0.000  -5.673
 -0.004  -0.007  -5.673   0.000   0.000 -10.128   0.000   0.000
 -0.001  -0.002   0.000  -5.673  -0.000   0.000 -10.128  -0.000
 -0.004  -0.006   0.000  -0.000  -5.673   0.000  -0.000 -10.129
 total augmentation occupancy for first ion, spin component:           1
  9.906  -3.707  -0.083  -0.041  -0.078   0.057   0.028   0.047
 -3.707   1.397   0.069   0.033   0.057  -0.040  -0.020  -0.030
 -0.083   0.069   6.905   0.053   0.057  -2.372  -0.043  -0.042
 -0.041   0.033   0.053   6.825   0.033  -0.043  -2.310  -0.025
 -0.078   0.057   0.057   0.033   6.832  -0.042  -0.025  -2.314
  0.057  -0.040  -2.372  -0.043  -0.042   0.819   0.024   0.024
  0.028  -0.020  -0.043  -2.310  -0.025   0.024   0.785   0.014
  0.047  -0.030  -0.042  -0.025  -2.314   0.024   0.014   0.786


------------------------ aborting loop because EDIFF is reached ----------------------------------------


    FORLOC:  cpu time      0.0048: real time      0.0048
    FORNL :  cpu time      0.3840: real time      0.3844
    FORCOR:  cpu time      0.3141: real time      0.3143
    OFIELD:  cpu time      0.0002: real time      0.0002

 VOLUME and BASIS-vectors are now :
 -----------------------------------------------------------------------------
  energy-cutoff  :     1000.00
  volume of cell :      248.77
      direct lattice vectors                 reciprocal lattice vectors
     5.051000000  0.000000000  0.000000000     0.197980598 -0.046983007  0.045053615
     1.618830000  6.821550000  0.000000000    -0.000000000  0.146594249  0.021882239
    -1.898810000 -1.077750000  7.220100000     0.000000000  0.000000000  0.138502237

  length of vectors
     5.051000000  7.011002423  7.543001292     0.208407169  0.148218441  0.138502237


 FORCES acting on ions:
    Electron-Ion                     Ewald-Force                    Non-Local-Force
 -----------------------------------------------------------------------------------------------
   -.902E+01 -.882E+02 -.548E+02   0.100E+02 0.892E+02 0.552E+02   -.102E+01 -.109E+01 -.390E+00
   0.902E+01 0.882E+02 0.548E+02   -.100E+02 -.892E+02 -.552E+02   0.102E+01 0.109E+01 0.389E+00
   0.104E+03 -.613E+02 -.377E+02   -.114E+03 0.679E+02 0.389E+02   0.100E+02 -.675E+01 -.130E+01
   -.104E+03 0.613E+02 0.377E+02   0.114E+03 -.679E+02 -.389E+02   -.100E+02 0.675E+01 0.130E+01
   -.412E+02 0.288E+02 -.170E+02   0.397E+02 -.326E+02 0.143E+02   0.143E+01 0.397E+01 0.275E+01
   0.412E+02 -.288E+02 0.170E+02   -.397E+02 0.326E+02 -.143E+02   -.143E+01 -.397E+01 -.275E+01
   -.116E+03 0.105E+03 -.380E+02   0.120E+03 -.111E+03 0.426E+02   -.444E+01 0.648E+01 -.469E+01
   0.116E+03 -.105E+03 0.379E+02   -.120E+03 0.111E+03 -.426E+02   0.444E+01 -.648E+01 0.468E+01
   -.148E+03 -.927E+02 -.106E+03   0.189E+03 0.110E+03 0.121E+03   -.408E+02 -.170E+02 -.149E+02
   0.148E+03 0.927E+02 0.106E+03   -.189E+03 -.110E+03 -.121E+03   0.407E+02 0.170E+02 0.149E+02
   0.201E+03 0.715E+02 0.522E+02   -.246E+03 -.830E+02 -.666E+02   0.456E+02 0.116E+02 0.146E+02
   -.201E+03 -.715E+02 -.522E+02   0.246E+03 0.830E+02 0.666E+02   -.456E+02 -.116E+02 -.146E+02
   0.373E+02 -.364E+02 -.184E+02   -.413E+02 0.398E+02 0.196E+02   0.419E+01 -.359E+01 -.122E+01
   -.373E+02 0.364E+02 0.184E+02   0.413E+02 -.398E+02 -.196E+02   -.419E+01 0.359E+01 0.122E+01
   -.284E+02 -.526E+01 -.360E+02   0.310E+02 0.415E+01 0.406E+02   -.275E+01 0.116E+01 -.481E+01
   0.284E+02 0.527E+01 0.360E+02   -.310E+02 -.415E+01 -.406E+02   0.275E+01 -.116E+01 0.481E+01
   -.317E+02 -.277E+02 0.108E+02   0.351E+02 0.303E+02 -.141E+02   -.361E+01 -.272E+01 0.346E+01
   0.317E+02 0.277E+02 -.108E+02   -.351E+02 -.303E+02 0.141E+02   0.361E+01 0.272E+01 -.345E+01
   0.486E+02 0.143E+02 -.378E+02   -.523E+02 -.170E+02 0.412E+02   0.380E+01 0.276E+01 -.351E+01
   -.486E+02 -.143E+02 0.378E+02   0.523E+02 0.170E+02 -.412E+02   -.380E+01 -.276E+01 0.351E+01
   0.340E+02 -.188E+02 0.317E+02   -.367E+02 0.199E+02 -.366E+02   0.285E+01 -.118E+01 0.512E+01
   -.340E+02 0.188E+02 -.317E+02   0.367E+02 -.199E+02 0.366E+02   -.285E+01 0.118E+01 -.512E+01
   -.522E+02 -.127E+02 -.214E+02   0.588E+02 0.153E+02 0.226E+02   -.695E+01 -.262E+01 -.121E+01
   0.522E+02 0.127E+02 0.214E+02   -.588E+02 -.153E+02 -.226E+02   0.695E+01 0.262E+01 0.121E+01
   -.586E+01 0.482E+02 0.197E+02   0.517E+01 -.541E+02 -.235E+02   0.695E+00 0.619E+01 0.397E+01
   0.586E+01 -.481E+02 -.197E+02   -.518E+01 0.541E+02 0.235E+02   -.694E+00 -.619E+01 -.397E+01
 -----------------------------------------------------------------------------------------------
   0.116E-02 -.643E-02 -.551E-02   -.124E-13 0.995E-13 0.604E-13   -.115E-02 0.644E-02 0.550E-02


 POSITION                                       TOTAL-FORCE (eV/Angst)
 -----------------------------------------------------------------------------------
      4.94844      5.03869      2.64154         0.005240      0.008517     -0.000998
     -0.17729      0.70496      4.57866        -0.005258     -0.009226      0.000587
      4.39308      3.78968      1.99505         0.044549     -0.093343     -0.020895
      0.37806      1.95399      5.22510        -0.045258      0.093522      0.021492
      0.20252      1.74281      1.10683        -0.209185      0.030915     -0.017237
      4.56847      4.00089      6.11328         0.217569     -0.035044      0.015984
      1.28874      0.96879      0.95087        -0.095524      0.127318     -0.055363
      3.48237      4.77480      6.26928         0.090770     -0.119421      0.059163
      0.48145      2.91027      1.73336        -0.318821     -0.281993     -0.190600
      4.28966      2.83336      5.48678         0.317644      0.282300      0.190630
      4.10717      1.42487      0.74293         0.663420      0.177652      0.227061
      0.66392      4.31883      6.47703        -0.665076     -0.177170     -0.226771
      4.12460      5.72648      2.87648         0.195338     -0.168864     -0.060676
      0.64658      0.01720      4.34376        -0.195234      0.168643      0.060581
      0.42570      4.80066      3.57369        -0.119114      0.049762     -0.187715
      4.34549      0.94291      3.64645         0.119107     -0.049638      0.188127
      5.64429      5.55594      1.96830        -0.151552     -0.112644      0.140334
     -0.87312      0.18765      5.25189         0.151765      0.113138     -0.140548
      3.69175      3.26461      2.65942         0.172808      0.099146     -0.146730
      1.07940      2.47903      4.56073        -0.172779     -0.098924      0.146642
      3.88355      4.00550      1.04758         0.122507     -0.050584      0.182366
      0.88758      1.73816      6.17258        -0.122477      0.050757     -0.182385
      2.22576      1.33808      1.11945        -0.304299     -0.098474     -0.057784
      2.54533      4.40553      6.10072         0.304053      0.098417      0.057629
      1.18581      0.11386      0.39366         0.004692      0.262951      0.153075
      3.58527      5.62994      6.82644        -0.004884     -0.267714     -0.155969
 -----------------------------------------------------------------------------------
    total drift:                                0.000016      0.000003     -0.000014


--------------------------------------------------------------------------------------------------------



  FREE ENERGIE OF THE ION-ELECTRON SYSTEM (eV)
  ---------------------------------------------------
  free  energy   TOTEN  =      -163.41404735 eV

  energy  without entropy=     -163.41404735  energy(sigma->0) =     -163.41404735



--------------------------------------------------------------------------------------------------------


    POTLOK:  cpu time      0.3184: real time      0.3189


--------------------------------------------------------------------------------------------------------


 stress matrix after NEB project (eV)
      0.00000      0.00000      0.00000
      0.00000      0.00000      0.00000
      0.00000      0.00000      0.00000
  FORCES: max atom, RMS     0.724666    0.318219
  FORCE total and by dimension    1.622604    0.665076
  Stress total and by dimension    0.000000    0.000000
     LOOP+:  cpu time     95.7147: real time     96.0249
    4ORBIT:  cpu time      0.0000: real time      0.0000

 total amount of memory used by VASP MPI-rank0    60514. kBytes
=======================================================================

   base      :      30000. kBytes
   nonl-proj :       7852. kBytes
   fftplans  :       1147. kBytes
   grid      :       2693. kBytes
   one-center:          3. kBytes
   wavefun   :      18819. kBytes

  
  
 General timing and accounting informations for this job:
 ========================================================
  
                  Total CPU time used (sec):      103.951
                            User time (sec):      102.068
                          System time (sec):        1.883
                         Elapsed time (sec):      107.848
  
                   Maximum memory used (kb):      226988.
                   Average memory used (kb):          N/A
  
                          Minor page faults:        25199
                          Major page faults:          808
                 Voluntary context switches:         3170
