 vasp.6.4.1 05Apr23 (build Jun  6 2023 14:36:51) complex                         
 executed on        HPECrayEX_GCC date 2024.08.20  14:27:28
 running  256 mpi-ranks, with    1 threads/rank, on    2 nodes
 distrk:  each k-point on  256 cores,    1 groups
 distr:  one band on NCORE=   2 cores,  128 groups


--------------------------------------------------------------------------------------------------------


 INCAR:
   ALGO = Conjugate
   NCORE = 2
   PREC = Accurate
   EDIFF = 1E-7
   ENCUT = 1000
   ISMEAR = 0
   SIGMA = 0.01
   ISIF = 0
   SYMPREC = 1E-7
   GGA = B5
   ALDAX = 1.0
   AGGAX = 1.0
   AGGAC = 1.0
   ALDAC = 0.0
   IVDW = 11
   VDW_S8 = 1.682
   VDW_SR = 1.094
   LWAVE = .FALSE.
   LCHARGE = .FALSE.
   LWAVE = .FALSE.
   LCHARGE = .FALSE.

 POTCAR:    PAW_PBE C_h 06Feb2004                 
 POTCAR:    PAW_PBE N_h 06Feb2004                 
 POTCAR:    PAW_PBE O_h 06Feb2004                 
 POTCAR:    PAW_PBE H_h 06Feb2004                 
 POTCAR:    PAW_PBE C_h 06Feb2004                 
   VRHFIN =C: s2p2                                                                                  
   LEXCH  = PE                                                                                      
   EATOM  =   147.1560 eV,   10.8157 Ry                                                             
                                                                                                    
   TITEL  = PAW_PBE C_h 06Feb2004                                                                   
   LULTRA =        F    use ultrasoft PP ?                                                          
   IUNSCR =        1    unscreen: 0-lin 1-nonlin 2-no                                               
   RPACOR =    0.800    partial core radius                                                         
   POMASS =   12.011; ZVAL   =    4.000    mass and valenz                                          
   RCORE  =    1.100    outmost cutoff radius                                                       
   RWIGS  =    1.630; RWIGS  =    0.863    wigner-seitz radius (au A)                               
   ENMAX  =  700.000; ENMIN  =  500.000 eV                                                          
   ICORE  =        2    local potential                                                             
   LCOR   =        T    correct aug charges                                                         
   LPAW   =        T    paw PP                                                                      
   EAUG   =  946.768                                                                                
   DEXC   =    0.000                                                                                
   RMAX   =    1.128    core radius for proj-oper                                                   
   RAUG   =    1.300    factor for augmentation sphere                                              
   RDEP   =    1.162    radius for radial grids                                                     
   RDEPT  =    1.088    core radius for aug-charge                                                  
                                                                                                    
   Atomic configuration                                                                             
    4 entries                                                                                       
     n  l   j            E        occ.                                                              
     1  0  0.50      -273.3789   2.0000                                                             
     2  0  0.50       -13.7508   2.0000                                                             
     2  1  0.50        -5.2854   2.0000                                                             
     3  2  1.50        -5.4423   0.0000                                                             
   Description                                                                                      
     l       E           TYP  RCUT    TYP  RCUT                                                     
     0    -13.7508458     23  1.100                                                                 
     0     -8.2022199     23  1.100                                                                 
     1     -5.2854383     23  1.100                                                                 
     1      1.1560700     23  1.100                                                                 
     2     -5.4423304      7  1.100                                                                 
  local pseudopotential read in
  partial core-charges read in
  partial kinetic energy density read in
  atomic valenz-charges read in
  non local Contribution for L=           0  read in
    real space projection operators read in
  non local Contribution for L=           0  read in
    real space projection operators read in
  non local Contribution for L=           1  read in
    real space projection operators read in
  non local Contribution for L=           1  read in
    real space projection operators read in
    PAW grid and wavefunctions read in

   number of l-projection  operators is LMAX  =           4
   number of lm-projection operators is LMMAX =           8

 POTCAR:    PAW_PBE N_h 06Feb2004                 
   VRHFIN =N: s2p3                                                                                  
   LEXCH  = PE                                                                                      
   EATOM  =   264.5486 eV,   19.4438 Ry                                                             
                                                                                                    
   TITEL  = PAW_PBE N_h 06Feb2004                                                                   
   LULTRA =        F    use ultrasoft PP ?                                                          
   IUNSCR =        1    unscreen: 0-lin 1-nonlin 2-no                                               
   RPACOR =    0.800    partial core radius                                                         
   POMASS =   14.001; ZVAL   =    5.000    mass and valenz                                          
   RCORE  =    1.100    outmost cutoff radius                                                       
   RWIGS  =    1.480; RWIGS  =    0.783    wigner-seitz radius (au A)                               
   ENMAX  =  700.000; ENMIN  =  500.000 eV                                                          
   ICORE  =        2    local potential                                                             
   LCOR   =        T    correct aug charges                                                         
   LPAW   =        T    paw PP                                                                      
   EAUG   =  904.640                                                                                
   DEXC   =    0.000                                                                                
   RMAX   =    1.127    core radius for proj-oper                                                   
   RAUG   =    1.300    factor for augmentation sphere                                              
   RDEP   =    1.115    radius for radial grids                                                     
   RDEPT  =    1.106    core radius for aug-charge                                                  
                                                                                                    
   Atomic configuration                                                                             
    4 entries                                                                                       
     n  l   j            E        occ.                                                              
     1  0  0.50      -384.7179   2.0000                                                             
     2  0  0.50       -18.5828   2.0000                                                             
     2  1  0.50        -7.0898   3.0000                                                             
     3  2  1.50        -6.8029   0.0000                                                             
   Description                                                                                      
     l       E           TYP  RCUT    TYP  RCUT                                                     
     0    -18.5828117     23  1.100                                                                 
     0    -15.0750597     23  1.100                                                                 
     1     -7.0897851     23  1.100                                                                 
     1     -1.9663412     23  1.100                                                                 
     2     -6.8029130      7  1.100                                                                 
  local pseudopotential read in
  partial core-charges read in
  partial kinetic energy density read in
  kinetic energy density of atom read in
  atomic valenz-charges read in
  non local Contribution for L=           0  read in
    real space projection operators read in
  non local Contribution for L=           0  read in
    real space projection operators read in
  non local Contribution for L=           1  read in
    real space projection operators read in
  non local Contribution for L=           1  read in
    real space projection operators read in
    PAW grid and wavefunctions read in

   number of l-projection  operators is LMAX  =           4
   number of lm-projection operators is LMMAX =           8

 POTCAR:    PAW_PBE O_h 06Feb2004                 
   VRHFIN =O: s2p4                                                                                  
   LEXCH  = PE                                                                                      
   EATOM  =   432.3788 eV,   31.7789 Ry                                                             
                                                                                                    
   TITEL  = PAW_PBE O_h 06Feb2004                                                                   
   LULTRA =        F    use ultrasoft PP ?                                                          
   IUNSCR =        1    unscreen: 0-lin 1-nonlin 2-no                                               
   RPACOR =    0.800    partial core radius                                                         
   POMASS =   16.000; ZVAL   =    6.000    mass and valenz                                          
   RCORE  =    1.100    outmost cutoff radius                                                       
   RWIGS  =    1.400; RWIGS  =    0.741    wigner-seitz radius (au A)                               
   ENMAX  =  700.000; ENMIN  =  500.000 eV                                                          
   ICORE  =        2    local potential                                                             
   LCOR   =        T    correct aug charges                                                         
   LPAW   =        T    paw PP                                                                      
   EAUG   =  888.804                                                                                
   DEXC   =    0.000                                                                                
   RMAX   =    1.128    core radius for proj-oper                                                   
   RAUG   =    1.300    factor for augmentation sphere                                              
   RDEP   =    1.125    radius for radial grids                                                     
   RDEPT  =    1.088    core radius for aug-charge                                                  
                                                                                                    
   Atomic configuration                                                                             
    4 entries                                                                                       
     n  l   j            E        occ.                                                              
     1  0  0.50      -514.6923   2.0000                                                             
     2  0  0.50       -23.9615   2.0000                                                             
     2  1  0.50        -9.0305   4.0000                                                             
     3  2  1.50        -9.5241   0.0000                                                             
   Description                                                                                      
     l       E           TYP  RCUT    TYP  RCUT                                                     
     0    -23.9615319     23  1.100                                                                 
     0    -25.3221145     23  1.100                                                                 
     1     -9.0304911     23  1.100                                                                 
     1     -5.4802209     23  1.100                                                                 
     2     -9.5240782      7  1.100                                                                 
  local pseudopotential read in
  partial core-charges read in
  partial kinetic energy density read in
  atomic valenz-charges read in
  non local Contribution for L=           0  read in
    real space projection operators read in
  non local Contribution for L=           0  read in
    real space projection operators read in
  non local Contribution for L=           1  read in
    real space projection operators read in
  non local Contribution for L=           1  read in
    real space projection operators read in
    PAW grid and wavefunctions read in

   number of l-projection  operators is LMAX  =           4
   number of lm-projection operators is LMMAX =           8

 POTCAR:    PAW_PBE H_h 06Feb2004                 
   VRHFIN =H: ultrasoft test                                                                        
   LEXCH  = PE                                                                                      
   EATOM  =    12.4884 eV,    0.9179 Ry                                                             
                                                                                                    
   TITEL  = PAW_PBE H_h 06Feb2004                                                                   
   LULTRA =        F    use ultrasoft PP ?                                                          
   IUNSCR =        0    unscreen: 0-lin 1-nonlin 2-no                                               
   RPACOR =    0.000    partial core radius                                                         
   POMASS =    1.000; ZVAL   =    1.000    mass and valenz                                          
   RCORE  =    0.800    outmost cutoff radius                                                       
   RWIGS  =    0.700; RWIGS  =    0.370    wigner-seitz radius (au A)                               
   ENMAX  =  700.000; ENMIN  =  350.000 eV                                                          
   RCLOC  =    0.701    cutoff for local pot                                                        
   LCOR   =        T    correct aug charges                                                         
   LPAW   =        T    paw PP                                                                      
   EAUG   = 1000.000                                                                                
   RMAX   =    0.819    core radius for proj-oper                                                   
   RAUG   =    1.000    factor for augmentation sphere                                              
   RDEP   =    0.817    radius for radial grids                                                     
   RDEPT  =    0.817    core radius for aug-charge                                                  
                                                                                                    
   Atomic configuration                                                                             
    2 entries                                                                                       
     n  l   j            E        occ.                                                              
     1  0  0.50        -6.4927   1.0000                                                             
     2  1  0.50        -3.4015   0.0000                                                             
   Description                                                                                      
     l       E           TYP  RCUT    TYP  RCUT                                                     
     0     -6.4927493     23  0.800                                                                 
     0      6.8029130     23  0.800                                                                 
     1     -6.8029130     23  0.800                                                                 
  local pseudopotential read in
  atomic valenz-charges read in
  non local Contribution for L=           0  read in
    real space projection operators read in
  non local Contribution for L=           0  read in
    real space projection operators read in
  non local Contribution for L=           1  read in
    real space projection operators read in
    PAW grid and wavefunctions read in

   number of l-projection  operators is LMAX  =           3
   number of lm-projection operators is LMMAX =           5

 -----------------------------------------------------------------------------
|                                                                             |
|               ----> ADVICE to this user running VASP <----                  |
|                                                                             |
|     You have a (more or less) 'large supercell' and for larger cells it     |
|     might be more efficient to use real-space projection operators.         |
|     Therefore, try LREAL= Auto in the INCAR file.                           |
|     Mind: For very accurate calculation, you might also keep the            |
|     reciprocal projection scheme (i.e. LREAL=.FALSE.).                      |
|                                                                             |
 -----------------------------------------------------------------------------

 -----------------------------------------------------------------------------
|                                                                             |
|               ----> ADVICE to this user running VASP <----                  |
|                                                                             |
|     You enforced a specific xc type in the INCAR file but a different       |
|     type was found in the POTCAR file.                                      |
|     I HOPE YOU KNOW WHAT YOU ARE DOING!                                     |
|                                                                             |
 -----------------------------------------------------------------------------

  PAW_PBE C_h 06Feb2004                 :
 energy of atom  1       EATOM= -147.1560
 kinetic energy error for atom=    0.0031 (will be added to EATOM!!)
  PAW_PBE N_h 06Feb2004                 :
 energy of atom  2       EATOM= -264.5486
 kinetic energy error for atom=    0.0081 (will be added to EATOM!!)
  PAW_PBE O_h 06Feb2004                 :
 energy of atom  3       EATOM= -432.3788
 kinetic energy error for atom=    0.0171 (will be added to EATOM!!)
  PAW_PBE H_h 06Feb2004                 :
 energy of atom  4       EATOM=  -12.4884
 kinetic energy error for atom=    0.0006 (will be added to EATOM!!)


 POSCAR:  C  N  O  H
  positions in cartesian coordinates
  No initial velocities read in
 exchange correlation table for  LEXCH =       12
   RHO(1)=    0.500       N(1)  =     2000
   RHO(2)=  100.500       N(2)  =     4000

 VTST: version 4.1, (05/19/21)

 CHAIN: initializing optimizer
 
 OPT: Using VASP Dynamics algorithm
 CHAIN: Read ICHAIN            0

 POSCAR:  C  N  O  H
  positions in cartesian coordinates
  No initial velocities read in



--------------------------------------------------------------------------------------------------------


 ion  position               nearest neighbor table
   1  0.862  0.796  0.366-  15 1.10  17 1.10  13 1.10   3 1.51
   2  0.138  0.204  0.634-  16 1.10  18 1.10  14 1.10   4 1.51
   3  0.782  0.599  0.276-  21 1.10  19 1.10   9 1.46   1 1.51
   4  0.218  0.401  0.724-  22 1.10  20 1.10  10 1.46   2 1.51
   5  0.008  0.280  0.153-  11 1.24   7 1.34   9 1.35
   6  0.992  0.720  0.847-  12 1.24   8 1.34  10 1.35
   7  0.252  0.163  0.132-  23 1.02  25 1.03   5 1.34
   8  0.748  0.837  0.868-  24 1.02  26 1.03   6 1.34
   9  0.037  0.465  0.240-   5 1.35   3 1.46
  10  0.963  0.535  0.760-   6 1.35   4 1.46
  11  0.780  0.225  0.103-   5 1.24
  12  0.220  0.775  0.897-   6 1.24
  13  0.677  0.902  0.398-   1 1.10
  14  0.323  0.098  0.602-   2 1.10
  15  0.020  0.782  0.495-   1 1.10
  16  0.980  0.218  0.505-   2 1.10
  17  0.945  0.858  0.273-   1 1.10
  18  0.055  0.142  0.727-   2 1.10
  19  0.697  0.537  0.368-   3 1.10
  20  0.303  0.463  0.632-   4 1.10
  21  0.628  0.610  0.145-   3 1.10
  22  0.372  0.390  0.855-   4 1.10
  23  0.428  0.221  0.155-   7 1.02
  24  0.572  0.779  0.845-   8 1.02
  25  0.247  0.025  0.055-   7 1.03
  26  0.753  0.975  0.945-   8 1.03

  LATTYP: Found a triclinic cell.
 ALAT       =     5.0510000000
 B/A-ratio  =     2.1551506031
 C/A-ratio  =     2.0563667669
 COS(alpha) =     0.0114247620
 COS(beta)  =     0.4593389698
 COS(gamma) =     0.7792973105
  
  Lattice vectors:
  
 A1 = (  -5.0510000000,   0.0000000000,   0.0000000000)
 A2 = (  -8.4831700000,   6.8215500000,   0.0000000000)
 A3 = (  -4.7710200000,  -5.7438000000,  -7.2201000000)


Analysis of symmetry for initial positions (statically):
=====================================================================
 Subroutine PRICEL returns:
 Original cell was already a primitive cell.
 

 Routine SETGRP: Setting up the symmetry group for a 
 triclinic supercell.


 Subroutine GETGRP returns: Found  1 space group operations
 (whereof  1 operations were pure point group operations)
 out of a pool of  2 trial point group operations.


The static configuration has the point symmetry C_1 .


Analysis of symmetry for dynamics (positions and initial velocities):
=====================================================================
 Subroutine PRICEL returns:
 Original cell was already a primitive cell.
 

 Routine SETGRP: Setting up the symmetry group for a 
 triclinic supercell.


 Subroutine GETGRP returns: Found  1 space group operations
 (whereof  1 operations were pure point group operations)
 out of a pool of  2 trial point group operations.


The dynamic configuration has the point symmetry C_1 .


 Subroutine INISYM returns: Found  1 space group operations
 (whereof  1 operations are pure point group operations),
 and found     1 'primitive' translations


----------------------------------------------------------------------------------------

                                     Primitive cell                                     

  volume of cell :     248.7732

  direct lattice vectors                    reciprocal lattice vectors
     5.051000000  0.000000000  0.000000000     0.197980598 -0.046983007  0.045053615
     1.618830000  6.821550000  0.000000000    -0.000000000  0.146594249  0.021882239
    -1.898810000 -1.077750000  7.220100000     0.000000000  0.000000000  0.138502237

  length of vectors
     5.051000000  7.011002423  7.543001292     0.208407169  0.148218441  0.138502237

  position of ions in fractional coordinates (direct lattice)
     0.861972589  0.796445238  0.365859022
     0.138064667  0.203535027  0.634154269
     0.781578986  0.599200900  0.276319201
     0.218453392  0.400780539  0.723688095
     0.008079648  0.279705926  0.153298677
     0.991920352  0.720280294  0.846703236
     0.252468354  0.162825871  0.131697782
     0.747561775  0.837144037  0.868309565
     0.036678920  0.464558963  0.240074308
     0.963348325  0.535416572  0.759931229
     0.779667646  0.225134261  0.102897307
     0.220345002  0.774846955  0.897083248
     0.677140016  0.902413565  0.398399101
     0.322905155  0.097572764  0.601620467
     0.019738651  0.781948789  0.494963713
     0.980308668  0.218017261  0.505041485
     0.945103312  0.857539709  0.272613991
     0.054939063  0.142431463  0.727397938
     0.697329547  0.536766822  0.368335189
     0.302705369  0.463210509  0.631671772
     0.627873694  0.610106943  0.145092024
     0.372157345  0.389873471  0.854915837
     0.428225287  0.220651294  0.155046496
     0.571800867  0.779323034  0.844962680
     0.247154217  0.025305469  0.054523041
     0.752858552  0.974694531  0.945476959

  ion indices of the primitive-cell ions
   primitive index   ion index
                 1           1
                 2           2
                 3           3
                 4           4
                 5           5
                 6           6
                 7           7
                 8           8
                 9           9
                10          10
                11          11
                12          12
                13          13
                14          14
                15          15
                16          16
                17          17
                18          18
                19          19
                20          20
                21          21
                22          22
                23          23
                24          24
                25          25
                26          26

----------------------------------------------------------------------------------------



 KPOINTS: auto                                    

Automatic generation of k-mesh.
 Grid dimensions read from file:
 generate k-points for:    6    4    4

 Generating k-lattice:

  Cartesian coordinates                     Fractional coordinates (reciprocal lattice)
     0.032996766 -0.007830501  0.007508936     0.166666667 -0.000000000  0.000000000
    -0.000000000  0.036648562  0.005470560     0.000000000  0.250000000  0.000000000
     0.000000000  0.000000000  0.034625559     0.000000000  0.000000000  0.250000000

  Length of vectors
     0.034734528  0.037054610  0.034625559

  Shift w.r.t. Gamma in fractional coordinates (k-lattice)
     0.000000000  0.000000000  0.000000000

 
 Subroutine IBZKPT returns following result:
 ===========================================
 
 Found     52 irreducible k-points:
 
 Following reciprocal coordinates:
            Coordinates               Weight
  0.000000  0.000000  0.000000      1.000000
  0.166667  0.000000  0.000000      2.000000
  0.333333  0.000000  0.000000      2.000000
  0.500000  0.000000  0.000000      1.000000
  0.000000  0.250000  0.000000      2.000000
  0.166667  0.250000  0.000000      2.000000
  0.333333  0.250000  0.000000      2.000000
  0.500000  0.250000  0.000000      2.000000
 -0.333333  0.250000  0.000000      2.000000
 -0.166667  0.250000  0.000000      2.000000
  0.000000  0.500000  0.000000      1.000000
  0.166667  0.500000  0.000000      2.000000
  0.333333  0.500000  0.000000      2.000000
  0.500000  0.500000  0.000000      1.000000
  0.000000  0.000000  0.250000      2.000000
  0.166667  0.000000  0.250000      2.000000
  0.333333  0.000000  0.250000      2.000000
  0.500000  0.000000  0.250000      2.000000
 -0.333333  0.000000  0.250000      2.000000
 -0.166667  0.000000  0.250000      2.000000
  0.000000  0.250000  0.250000      2.000000
  0.166667  0.250000  0.250000      2.000000
  0.333333  0.250000  0.250000      2.000000
  0.500000  0.250000  0.250000      2.000000
 -0.333333  0.250000  0.250000      2.000000
 -0.166667  0.250000  0.250000      2.000000
  0.000000  0.500000  0.250000      2.000000
  0.166667  0.500000  0.250000      2.000000
  0.333333  0.500000  0.250000      2.000000
  0.500000  0.500000  0.250000      2.000000
 -0.333333  0.500000  0.250000      2.000000
 -0.166667  0.500000  0.250000      2.000000
  0.000000 -0.250000  0.250000      2.000000
  0.166667 -0.250000  0.250000      2.000000
  0.333333 -0.250000  0.250000      2.000000
  0.500000 -0.250000  0.250000      2.000000
 -0.333333 -0.250000  0.250000      2.000000
 -0.166667 -0.250000  0.250000      2.000000
  0.000000  0.000000  0.500000      1.000000
  0.166667  0.000000  0.500000      2.000000
  0.333333  0.000000  0.500000      2.000000
  0.500000  0.000000  0.500000      1.000000
  0.000000  0.250000  0.500000      2.000000
  0.166667  0.250000  0.500000      2.000000
  0.333333  0.250000  0.500000      2.000000
  0.500000  0.250000  0.500000      2.000000
 -0.333333  0.250000  0.500000      2.000000
 -0.166667  0.250000  0.500000      2.000000
  0.000000  0.500000  0.500000      1.000000
  0.166667  0.500000  0.500000      2.000000
  0.333333  0.500000  0.500000      2.000000
  0.500000  0.500000  0.500000      1.000000
 
 Following cartesian coordinates:
            Coordinates               Weight
  0.000000  0.000000  0.000000      1.000000
  0.032997 -0.007831  0.007509      2.000000
  0.065994 -0.015661  0.015018      2.000000
  0.098990 -0.023492  0.022527      1.000000
  0.000000  0.036649  0.005471      2.000000
  0.032997  0.028818  0.012979      2.000000
  0.065994  0.020988  0.020488      2.000000
  0.098990  0.013157  0.027997      2.000000
 -0.065994  0.052310 -0.009547      2.000000
 -0.032997  0.044479 -0.002038      2.000000
  0.000000  0.073297  0.010941      1.000000
  0.032997  0.065467  0.018450      2.000000
  0.065994  0.057636  0.025959      2.000000
  0.098990  0.049806  0.033468      1.000000
  0.000000  0.000000  0.034626      2.000000
  0.032997 -0.007831  0.042134      2.000000
  0.065994 -0.015661  0.049643      2.000000
  0.098990 -0.023492  0.057152      2.000000
 -0.065994  0.015661  0.019608      2.000000
 -0.032997  0.007831  0.027117      2.000000
  0.000000  0.036649  0.040096      2.000000
  0.032997  0.028818  0.047605      2.000000
  0.065994  0.020988  0.055114      2.000000
  0.098990  0.013157  0.062623      2.000000
 -0.065994  0.052310  0.025078      2.000000
 -0.032997  0.044479  0.032587      2.000000
  0.000000  0.073297  0.045567      2.000000
  0.032997  0.065467  0.053076      2.000000
  0.065994  0.057636  0.060585      2.000000
  0.098990  0.049806  0.068093      2.000000
 -0.065994  0.088958  0.030549      2.000000
 -0.032997  0.081128  0.038058      2.000000
  0.000000 -0.036649  0.029155      2.000000
  0.032997 -0.044479  0.036664      2.000000
  0.065994 -0.052310  0.044173      2.000000
  0.098990 -0.060140  0.051682      2.000000
 -0.065994 -0.020988  0.014137      2.000000
 -0.032997 -0.028818  0.021646      2.000000
  0.000000  0.000000  0.069251      1.000000
  0.032997 -0.007831  0.076760      2.000000
  0.065994 -0.015661  0.084269      2.000000
  0.098990 -0.023492  0.091778      1.000000
  0.000000  0.036649  0.074722      2.000000
  0.032997  0.028818  0.082231      2.000000
  0.065994  0.020988  0.089740      2.000000
  0.098990  0.013157  0.097248      2.000000
 -0.065994  0.052310  0.059704      2.000000
 -0.032997  0.044479  0.067213      2.000000
  0.000000  0.073297  0.080192      1.000000
  0.032997  0.065467  0.087701      2.000000
  0.065994  0.057636  0.095210      2.000000
  0.098990  0.049806  0.102719      1.000000
 


--------------------------------------------------------------------------------------------------------




 Dimension of arrays:
   k-points           NKPTS =     52   k-points in BZ     NKDIM =     52   number of bands    NBANDS=    128
   number of dos      NEDOS =    301   number of ions     NIONS =     26
   non local maximal  LDIM  =      4   non local SUM 2l+1 LMDIM =      8
   total plane-waves  NPLWV = 311040
   max r-space proj   IRMAX =      1   max aug-charges    IRDMAX=   9317
   dimension x,y,z NGX =    54 NGY =   72 NGZ =   80
   dimension x,y,z NGXF=   108 NGYF=  144 NGZF=  160
   support grid    NGXF=   108 NGYF=  144 NGZF=  160
   ions per type =               6   2   4  14
   NGX,Y,Z   is equivalent  to a cutoff of  17.77, 17.07, 17.63 a.u.
   NGXF,Y,Z  is equivalent  to a cutoff of  35.55, 34.15, 35.26 a.u.

 SYSTEM =  unknown system                          
 POSCAR =   C  N  O  H                             

 Startparameter for this run:
   NWRITE =      2    write-flag & timer
   PREC   = accura    normal or accurate (medium, high low for compatibility)
   ISTART =      0    job   : 0-new  1-cont  2-samecut
   ICHARG =      2    charge: 1-file 2-atom 10-const
   ISPIN  =      1    spin polarized calculation?
   LNONCOLLINEAR =      F non collinear calculations
   LSORBIT =      F    spin-orbit coupling
   INIWAV =      1    electr: 0-lowe 1-rand  2-diag
   LASPH  =      F    aspherical Exc in radial PAW
 Electronic Relaxation 1
   ENCUT  = 1000.0 eV  73.50 Ry    8.57 a.u.  13.02 18.08 19.45*2*pi/ulx,y,z
   ENINI  = 1000.0     initial cutoff
   ENAUG  = 1000.0 eV  augmentation charge cutoff
   NELM   =     60;   NELMIN=  2; NELMDL= -5     # of ELM steps 
   EDIFF  = 0.1E-06   stopping-criterion for ELM
   LREAL  =      F    real-space projection
   NLSPLINE    = F    spline interpolate recip. space projectors
   LCOMPAT=      F    compatible to vasp.4.4
   GGA_COMPAT  = T    GGA compatible to vasp.4.4-vasp.4.6
   LMAXPAW     = -100 max onsite density
   LMAXMIX     =    2 max onsite mixed and CHGCAR
   VOSKOWN=      0    Vosko Wilk Nusair interpolation
   ROPT   =    0.00000   0.00000   0.00000   0.00000
 Ionic relaxation
   EDIFFG = 0.1E-05   stopping-criterion for IOM
   NSW    =      0    number of steps for IOM
   NBLOCK =      1;   KBLOCK =      1    inner block; outer block 
   IBRION =     -1    ionic relax: 0-MD 1-quasi-New 2-CG
   NFREE  =      0    steps in history (QN), initial steepest desc. (CG)
   ISIF   =      0    stress and relaxation
   IWAVPR =     10    prediction:  0-non 1-charg 2-wave 3-comb
   ISYM   =      2    0-nonsym 1-usesym 2-fastsym
   LCORR  =      T    Harris-Foulkes like correction to forces

   POTIM  = 0.5000    time-step for ionic-motion
   TEIN   =    0.0    initial temperature
   TEBEG  =    0.0;   TEEND  =   0.0 temperature during run
   SMASS  =  -3.00    Nose mass-parameter (am)
   estimated Nose-frequenzy (Omega)   =  0.10E-29 period in steps = 0.13E+47 mass=  -0.583E-27a.u.
   SCALEE = 1.0000    scale energy and forces
   NPACO  =    256;   APACO  = 10.0  distance and # of slots for P.C.
   PSTRESS=    0.0 pullay stress

  Mass of Ions in am
   POMASS =  12.01 14.00 16.00  1.00
  Ionic Valenz
   ZVAL   =   4.00  5.00  6.00  1.00
  Atomic Wigner-Seitz radii
   RWIGS  =  -1.00 -1.00 -1.00 -1.00
  virtual crystal weights 
   VCA    =   1.00  1.00  1.00  1.00
   NELECT =      72.0000    total number of electrons
   NUPDOWN=      -1.0000    fix difference up-down

 DOS related values:
   EMIN   =  10.00;   EMAX   =-10.00  energy-range for DOS
   EFERMI =   0.00;   METHOD = LEGACY      
   ISMEAR =     0;   SIGMA  =   0.01  broadening in eV -4-tet -1-fermi 0-gaus

 Electronic relaxation 2 (details)
   IALGO  =     58    algorithm
   LDIAG  =      T    sub-space diagonalisation (order eigenvalues)
   LSUBROT=      F    optimize rotation matrix (better conditioning)
   TURBO    =      0    0=normal 1=particle mesh
   IRESTART =      0    0=no restart 2=restart with 2 vectors
   NREBOOT  =      0    no. of reboots
   NMIN     =      0    reboot dimension
   EREF     =   0.00    reference energy to select bands
   IMIX   =      4    mixing-type and parameters
     AMIX     =   0.40;   BMIX     =  1.00
     AMIX_MAG =   1.60;   BMIX_MAG =  1.00
     AMIN     =   0.10
     WC   =   100.;   INIMIX=   1;  MIXPRE=   1;  MAXMIX= -45

 Intra band minimization:
   WEIMIN = 0.0000     energy-eigenvalue tresh-hold
   EBREAK =  0.20E-09  absolut break condition
   DEPER  =   0.30     relativ break condition  

   TIME   =   0.40     timestep for ELM

  volume/ion in A,a.u.               =       9.57        64.57
  Fermi-wavevector in a.u.,A,eV,Ry     =   1.082890  2.046366 15.954890  1.172651
  Thomas-Fermi vector in A             =   2.218943

 Write flags
   LWAVE        =      F    write WAVECAR
   LDOWNSAMPLE  =      F    k-point downsampling of WAVECAR
   LCHARG       =      T    write CHGCAR
   LVTOT        =      F    write LOCPOT, total local potential
   LVHAR        =      F    write LOCPOT, Hartree potential only
   LELF         =      F    write electronic localiz. function (ELF)
   LORBIT       =      0    0 simple, 1 ext, 2 COOP (PROOUT), +10 PAW based schemes


 Dipole corrections
   LMONO  =      F    monopole corrections only (constant potential shift)
   LDIPOL =      F    correct potential (dipole corrections)
   IDIPOL =      0    1-x, 2-y, 3-z, 4-all directions 
   EPSILON=  1.0000000 bulk dielectric constant

 Exchange correlation treatment:
   GGA     =    B5    GGA type
   LEXCH   =    12    internal setting for exchange type
   LIBXC   =     F    Libxc                    
   VOSKOWN =     0    Vosko Wilk Nusair interpolation
   LHFCALC =     F    Hartree Fock is set to
   LHFONE  =     F    Hartree Fock one center treatment
   AEXX    =    0.0000 exact exchange contribution

 Linear response parameters
   LEPSILON=     F    determine dielectric tensor
   LRPA    =     F    only Hartree local field effects (RPA)
   LNABLA  =     F    use nabla operator in PAW spheres
   LVEL    =     F    velocity operator in full k-point grid
   CSHIFT  =0.1000    complex shift for real part using Kramers Kronig
   OMEGAMAX=  -1.0    maximum frequency
   DEG_THRESHOLD= 0.2000000E-02 threshold for treating states as degnerate
   RTIME   =   -0.100 relaxation time in fs
  (WPLASMAI=    0.000 imaginary part of plasma frequency in eV, 0.658/RTIME)
   DFIELD  = 0.0000000 0.0000000 0.0000000 field for delta impulse in time

  Optional k-point grid parameters
   LKPOINTS_OPT  =     F    use optional k-point grid
   KPOINTS_OPT_MODE=     1    mode for optional k-point grid

 Orbital magnetization related:
   ORBITALMAG=     F  switch on orbital magnetization
   LCHIMAG   =     F  perturbation theory with respect to B field
   DQ        =  0.001000  dq finite difference perturbation B field
   LLRAUG    =     F  two centre corrections for induced B field
   LBONE     =     F  B-component reconstruction in AE one-centre
   LVGVCALC  =     T  calculate vGv susceptibility
   LVGVAPPL  =     F  apply vGv susceptibility instead of pGv for G=0

 Random number generation:
   RANDOM_GENERATOR = DEFAULT
   PCG_SEED         = not used


--------------------------------------------------------------------------------------------------------


 Static calculation
 charge density and potential will be updated during run
 non-spin polarized calculation
 Conjugate gradient for all bands (Freysoldt, et al. PRB 79, 241103 (2009))
 preconditioned conjugated gradient                                        
 perform sub-space diagonalisation
    before iterative eigenvector-optimisation
 modified Broyden-mixing scheme, WC =      100.0
 initial mixing is a Kerker type mixing with AMIX =  0.4000 and BMIX =      1.0000
 Hartree-type preconditioning will be used
 using additional bands           92
 reciprocal scheme for non local part
 use partial core corrections
 no Harris-corrections to forces 
 use gradient corrections 
 use of overlap-Matrix (Vanderbilt PP)
 Gauss-broadening in eV      SIGMA  =   0.01


--------------------------------------------------------------------------------------------------------


  energy-cutoff  :     1000.00
  volume of cell :      248.77
      direct lattice vectors                 reciprocal lattice vectors
     5.051000000  0.000000000  0.000000000     0.197980598 -0.046983007  0.045053615
     1.618830000  6.821550000  0.000000000    -0.000000000  0.146594249  0.021882239
    -1.898810000 -1.077750000  7.220100000     0.000000000  0.000000000  0.138502237

  length of vectors
     5.051000000  7.011002423  7.543001292     0.208407169  0.148218441  0.138502237



 k-points in units of 2pi/SCALE and weight: auto                                    
   0.00000000  0.00000000  0.00000000       0.010
   0.03299677 -0.00783050  0.00750894       0.021
   0.06599353 -0.01566100  0.01501787       0.021
   0.09899030 -0.02349150  0.02252681       0.010
   0.00000000  0.03664856  0.00547056       0.021
   0.03299677  0.02881806  0.01297950       0.021
   0.06599353  0.02098756  0.02048843       0.021
   0.09899030  0.01315706  0.02799737       0.021
  -0.06599353  0.05230956 -0.00954731       0.021
  -0.03299677  0.04447906 -0.00203838       0.021
   0.00000000  0.07329712  0.01094112       0.010
   0.03299677  0.06546662  0.01845006       0.021
   0.06599353  0.05763612  0.02595899       0.021
   0.09899030  0.04980562  0.03346793       0.010
   0.00000000  0.00000000  0.03462556       0.021
   0.03299677 -0.00783050  0.04213449       0.021
   0.06599353 -0.01566100  0.04964343       0.021
   0.09899030 -0.02349150  0.05715237       0.021
  -0.06599353  0.01566100  0.01960769       0.021
  -0.03299677  0.00783050  0.02711662       0.021
   0.00000000  0.03664856  0.04009612       0.021
   0.03299677  0.02881806  0.04760505       0.021
   0.06599353  0.02098756  0.05511399       0.021
   0.09899030  0.01315706  0.06262293       0.021
  -0.06599353  0.05230956  0.02507825       0.021
  -0.03299677  0.04447906  0.03258718       0.021
   0.00000000  0.07329712  0.04556668       0.021
   0.03299677  0.06546662  0.05307561       0.021
   0.06599353  0.05763612  0.06058455       0.021
   0.09899030  0.04980562  0.06809349       0.021
  -0.06599353  0.08895813  0.03054881       0.021
  -0.03299677  0.08112763  0.03805774       0.021
   0.00000000 -0.03664856  0.02915500       0.021
   0.03299677 -0.04447906  0.03666394       0.021
   0.06599353 -0.05230956  0.04417287       0.021
   0.09899030 -0.06014007  0.05168181       0.021
  -0.06599353 -0.02098756  0.01413713       0.021
  -0.03299677 -0.02881806  0.02164606       0.021
   0.00000000  0.00000000  0.06925112       0.010
   0.03299677 -0.00783050  0.07676005       0.021
   0.06599353 -0.01566100  0.08426899       0.021
   0.09899030 -0.02349150  0.09177793       0.010
   0.00000000  0.03664856  0.07472168       0.021
   0.03299677  0.02881806  0.08223061       0.021
   0.06599353  0.02098756  0.08973955       0.021
   0.09899030  0.01315706  0.09724849       0.021
  -0.06599353  0.05230956  0.05970381       0.021
  -0.03299677  0.04447906  0.06721274       0.021
   0.00000000  0.07329712  0.08019224       0.010
   0.03299677  0.06546662  0.08770117       0.021
   0.06599353  0.05763612  0.09521011       0.021
   0.09899030  0.04980562  0.10271905       0.010

 k-points in reciprocal lattice and weights: auto                                    
   0.00000000  0.00000000  0.00000000       0.010
   0.16666667  0.00000000  0.00000000       0.021
   0.33333333  0.00000000  0.00000000       0.021
   0.50000000  0.00000000  0.00000000       0.010
   0.00000000  0.25000000  0.00000000       0.021
   0.16666667  0.25000000  0.00000000       0.021
   0.33333333  0.25000000  0.00000000       0.021
   0.50000000  0.25000000  0.00000000       0.021
  -0.33333333  0.25000000  0.00000000       0.021
  -0.16666667  0.25000000  0.00000000       0.021
   0.00000000  0.50000000  0.00000000       0.010
   0.16666667  0.50000000  0.00000000       0.021
   0.33333333  0.50000000  0.00000000       0.021
   0.50000000  0.50000000  0.00000000       0.010
   0.00000000  0.00000000  0.25000000       0.021
   0.16666667  0.00000000  0.25000000       0.021
   0.33333333  0.00000000  0.25000000       0.021
   0.50000000  0.00000000  0.25000000       0.021
  -0.33333333  0.00000000  0.25000000       0.021
  -0.16666667  0.00000000  0.25000000       0.021
   0.00000000  0.25000000  0.25000000       0.021
   0.16666667  0.25000000  0.25000000       0.021
   0.33333333  0.25000000  0.25000000       0.021
   0.50000000  0.25000000  0.25000000       0.021
  -0.33333333  0.25000000  0.25000000       0.021
  -0.16666667  0.25000000  0.25000000       0.021
   0.00000000  0.50000000  0.25000000       0.021
   0.16666667  0.50000000  0.25000000       0.021
   0.33333333  0.50000000  0.25000000       0.021
   0.50000000  0.50000000  0.25000000       0.021
  -0.33333333  0.50000000  0.25000000       0.021
  -0.16666667  0.50000000  0.25000000       0.021
   0.00000000 -0.25000000  0.25000000       0.021
   0.16666667 -0.25000000  0.25000000       0.021
   0.33333333 -0.25000000  0.25000000       0.021
   0.50000000 -0.25000000  0.25000000       0.021
  -0.33333333 -0.25000000  0.25000000       0.021
  -0.16666667 -0.25000000  0.25000000       0.021
   0.00000000  0.00000000  0.50000000       0.010
   0.16666667  0.00000000  0.50000000       0.021
   0.33333333  0.00000000  0.50000000       0.021
   0.50000000  0.00000000  0.50000000       0.010
   0.00000000  0.25000000  0.50000000       0.021
   0.16666667  0.25000000  0.50000000       0.021
   0.33333333  0.25000000  0.50000000       0.021
   0.50000000  0.25000000  0.50000000       0.021
  -0.33333333  0.25000000  0.50000000       0.021
  -0.16666667  0.25000000  0.50000000       0.021
   0.00000000  0.50000000  0.50000000       0.010
   0.16666667  0.50000000  0.50000000       0.021
   0.33333333  0.50000000  0.50000000       0.021
   0.50000000  0.50000000  0.50000000       0.010

 position of ions in fractional coordinates (direct lattice) 
   0.86197259  0.79644524  0.36585902
   0.13806467  0.20353503  0.63415427
   0.78157899  0.59920090  0.27631920
   0.21845339  0.40078054  0.72368810
   0.00807965  0.27970593  0.15329868
   0.99192035  0.72028029  0.84670324
   0.25246835  0.16282587  0.13169778
   0.74756178  0.83714404  0.86830956
   0.03667892  0.46455896  0.24007431
   0.96334832  0.53541657  0.75993123
   0.77966765  0.22513426  0.10289731
   0.22034500  0.77484696  0.89708325
   0.67714002  0.90241356  0.39839910
   0.32290515  0.09757276  0.60162047
   0.01973865  0.78194879  0.49496371
   0.98030867  0.21801726  0.50504149
   0.94510331  0.85753971  0.27261399
   0.05493906  0.14243146  0.72739794
   0.69732955  0.53676682  0.36833519
   0.30270537  0.46321051  0.63167177
   0.62787369  0.61010694  0.14509202
   0.37215734  0.38987347  0.85491584
   0.42822529  0.22065129  0.15504650
   0.57180087  0.77932303  0.84496268
   0.24715422  0.02530547  0.05452304
   0.75285855  0.97469453  0.94547696

 position of ions in cartesian coordinates  (Angst):
   4.94843622  5.03868645  2.64153873
  -0.17728522  0.70496460  4.57865724
   4.39308219  3.78967588  1.99505226
   0.37805745  1.95398964  5.22510042
   0.20252159  1.74281031  1.10683178
   4.56847247  4.00089363  6.11328203
   1.28873600  0.96878754  0.95087115
   3.48237352  4.77479927  6.26928189
   0.48145171  2.91027211  1.73336051
   4.28965578  2.83335504  5.48677947
   4.10717294  1.42486705  0.74292884
   0.66391746  4.31882578  6.47703076
   4.12460418  5.72648462  2.87648135
   0.64658470  0.01720103  4.34375993
   0.42570004  4.80065562  3.57368751
   4.34549414  0.94290719  3.64645003
   5.64428566  5.55594027  1.96830028
  -0.87312095  0.18765022  5.25188585
   3.69174724  3.26460847  2.65941690
   1.07939921  2.47902940  4.56073336
   3.88354726  4.00550209  1.04757892
   0.88758288  1.73815583  6.17257783
   2.22575902  1.33808247  1.11945121
   2.54533410  4.40553251  6.10071505
   1.18581231  0.11386032  0.39366181
   3.58527219  5.62993968  6.82643819



--------------------------------------------------------------------------------------------------------


 k-point   1 :   0.0000 0.0000 0.0000  plane waves:   17851
 k-point   2 :   0.1667 0.0000 0.0000  plane waves:   17854
 k-point   3 :   0.3333 0.0000 0.0000  plane waves:   17868
 k-point   4 :   0.5000 0.0000 0.0000  plane waves:   17838
 k-point   5 :   0.0000 0.2500 0.0000  plane waves:   17836
 k-point   6 :   0.1667 0.2500 0.0000  plane waves:   17859
 k-point   7 :   0.3333 0.2500 0.0000  plane waves:   17872
 k-point   8 :   0.5000 0.2500 0.0000  plane waves:   17882
 k-point   9 :  -0.3333 0.2500 0.0000  plane waves:   17869
 k-point  10 :  -0.1667 0.2500 0.0000  plane waves:   17859
 k-point  11 :   0.0000 0.5000 0.0000  plane waves:   17850
 k-point  12 :   0.1667 0.5000 0.0000  plane waves:   17878
 k-point  13 :   0.3333 0.5000 0.0000  plane waves:   17889
 k-point  14 :   0.5000 0.5000 0.0000  plane waves:   17900
 k-point  15 :   0.0000 0.0000 0.2500  plane waves:   17825
 k-point  16 :   0.1667 0.0000 0.2500  plane waves:   17860
 k-point  17 :   0.3333 0.0000 0.2500  plane waves:   17860
 k-point  18 :   0.5000 0.0000 0.2500  plane waves:   17861
 k-point  19 :  -0.3333 0.0000 0.2500  plane waves:   17861
 k-point  20 :  -0.1667 0.0000 0.2500  plane waves:   17861
 k-point  21 :   0.0000 0.2500 0.2500  plane waves:   17856
 k-point  22 :   0.1667 0.2500 0.2500  plane waves:   17843
 k-point  23 :   0.3333 0.2500 0.2500  plane waves:   17859
 k-point  24 :   0.5000 0.2500 0.2500  plane waves:   17878
 k-point  25 :  -0.3333 0.2500 0.2500  plane waves:   17870
 k-point  26 :  -0.1667 0.2500 0.2500  plane waves:   17879
 k-point  27 :   0.0000 0.5000 0.2500  plane waves:   17856
 k-point  28 :   0.1667 0.5000 0.2500  plane waves:   17837
 k-point  29 :   0.3333 0.5000 0.2500  plane waves:   17867
 k-point  30 :   0.5000 0.5000 0.2500  plane waves:   17901
 k-point  31 :  -0.3333 0.5000 0.2500  plane waves:   17882
 k-point  32 :  -0.1667 0.5000 0.2500  plane waves:   17881
 k-point  33 :   0.0000-0.2500 0.2500  plane waves:   17846
 k-point  34 :   0.1667-0.2500 0.2500  plane waves:   17862
 k-point  35 :   0.3333-0.2500 0.2500  plane waves:   17873
 k-point  36 :   0.5000-0.2500 0.2500  plane waves:   17877
 k-point  37 :  -0.3333-0.2500 0.2500  plane waves:   17903
 k-point  38 :  -0.1667-0.2500 0.2500  plane waves:   17878
 k-point  39 :   0.0000 0.0000 0.5000  plane waves:   17824
 k-point  40 :   0.1667 0.0000 0.5000  plane waves:   17851
 k-point  41 :   0.3333 0.0000 0.5000  plane waves:   17848
 k-point  42 :   0.5000 0.0000 0.5000  plane waves:   17840
 k-point  43 :   0.0000 0.2500 0.5000  plane waves:   17833
 k-point  44 :   0.1667 0.2500 0.5000  plane waves:   17854
 k-point  45 :   0.3333 0.2500 0.5000  plane waves:   17882
 k-point  46 :   0.5000 0.2500 0.5000  plane waves:   17867
 k-point  47 :  -0.3333 0.2500 0.5000  plane waves:   17865
 k-point  48 :  -0.1667 0.2500 0.5000  plane waves:   17856
 k-point  49 :   0.0000 0.5000 0.5000  plane waves:   17818
 k-point  50 :   0.1667 0.5000 0.5000  plane waves:   17842
 k-point  51 :   0.3333 0.5000 0.5000  plane waves:   17873
 k-point  52 :   0.5000 0.5000 0.5000  plane waves:   17868

 maximum and minimum number of plane-waves per node :      8961     8889

 maximum number of plane-waves:     17903
 maximum index in each direction: 
   IXMAX=   13   IYMAX=   18   IZMAX=   19
   IXMIN=  -13   IYMIN=  -18   IZMIN=  -19


 parallel 3D FFT for wavefunctions:
    minimum data exchange during FFTs selected (reduces bandwidth)
 parallel 3D FFT for charge:
    minimum data exchange during FFTs selected (reduces bandwidth)


 total amount of memory used by VASP MPI-rank0   191097. kBytes
=======================================================================

   base      :      30000. kBytes
   nonl-proj :     124760. kBytes
   fftplans  :       5371. kBytes
   grid      :       7926. kBytes
   one-center:         39. kBytes
   wavefun   :      23001. kBytes

     INWAV:  cpu time      0.0001: real time      0.0002
 Broyden mixing: mesh for mixing (old mesh)
   NGX = 27   NGY = 37   NGZ = 39
  (NGX  =108   NGY  =144   NGZ  =160)
  gives a total of  38961 points

 initial charge density was supplied:
 charge density of overlapping atoms calculated
 number of electron      72.0000000 magnetization 
 keeping initial charge density in first step


--------------------------------------------------------------------------------------------------------


 Maximum index for augmentation-charges          464 (set IRDMAX)


--------------------------------------------------------------------------------------------------------


 First call to EWALD:  gamma=   0.282
 Maximum number of real-space cells 3x 3x 2
 Maximum number of reciprocal cells 2x 3x 3

    FEWALD:  cpu time      0.0021: real time      0.0022


--------------------------------------- Ionic step        1  -------------------------------------------




--------------------------------------- Iteration      1(   1)  ---------------------------------------


    POTLOK:  cpu time      0.1295: real time      0.1298
    SETDIJ:  cpu time      0.0113: real time      0.0113
    TRIAL :  cpu time     29.6078: real time     29.6227
    CORREC:  cpu time      0.0015: real time      0.0016
    --------------------------------------------
      LOOP:  cpu time     29.7723: real time     29.7876

 eigenvalue-minimisations  : 13312
 total energy-change (2. order) : 0.2477328E+03  (-0.6711345E+04)
 number of electron      72.0000000 magnetization 
 augmentation part       72.0000000 magnetization 

 Free energy of the ion-electron system (eV)
  ---------------------------------------------------
  alpha Z        PSCENC =        60.22020652
  Ewald energy   TEWEN  =     -1241.27643166
  -Hartree energ DENC   =     -1716.25921835
  -exchange      EXHF   =         0.00000000
  -V(xc)+E(xc)   XCENC  =       207.30232699
  PAW double counting   =      2505.92954221    -2478.77095305
  entropy T*S    EENTRO =        -0.00030809
  eigenvalues    EBANDS =      -409.12798306
  atomic energy  EATOM  =      3319.71562210
  ---------------------------------------------------
  free energy    TOTEN  =       247.73280360 eV

  energy without entropy =      247.73311169  energy(sigma->0) =      247.73295764


--------------------------------------------------------------------------------------------------------




--------------------------------------- Iteration      1(   2)  ---------------------------------------


    TRIAL :  cpu time     81.1500: real time     81.2038
    CORREC:  cpu time      0.0004: real time      0.0004
    --------------------------------------------
      LOOP:  cpu time     81.1639: real time     81.2332

 eigenvalue-minimisations  : 19968
 total energy-change (2. order) :-0.3998791E+03  (-0.3981490E+03)
 number of electron      72.0000000 magnetization 
 augmentation part       72.0000000 magnetization 

 Free energy of the ion-electron system (eV)
  ---------------------------------------------------
  alpha Z        PSCENC =        60.22020652
  Ewald energy   TEWEN  =     -1241.27643166
  -Hartree energ DENC   =     -1716.25921835
  -exchange      EXHF   =         0.00000000
  -V(xc)+E(xc)   XCENC  =       207.30232699
  PAW double counting   =      2505.92954221    -2478.77095305
  entropy T*S    EENTRO =        -0.00000000
  eigenvalues    EBANDS =      -809.00738186
  atomic energy  EATOM  =      3319.71562210
  ---------------------------------------------------
  free energy    TOTEN  =      -152.14628712 eV

  energy without entropy =     -152.14628712  energy(sigma->0) =     -152.14628712


--------------------------------------------------------------------------------------------------------




--------------------------------------- Iteration      1(   3)  ---------------------------------------


    TRIAL :  cpu time     32.3971: real time     32.4131
    CORREC:  cpu time      0.0004: real time      0.0004
    --------------------------------------------
      LOOP:  cpu time     32.4263: real time     32.4424

 eigenvalue-minimisations  : 13312
 total energy-change (2. order) :-0.8693354E+01  (-0.8693354E+01)
 number of electron      72.0000000 magnetization 
 augmentation part       72.0000000 magnetization 

 Free energy of the ion-electron system (eV)
  ---------------------------------------------------
  alpha Z        PSCENC =        60.22020652
  Ewald energy   TEWEN  =     -1241.27643166
  -Hartree energ DENC   =     -1716.25921835
  -exchange      EXHF   =         0.00000000
  -V(xc)+E(xc)   XCENC  =       207.30232699
  PAW double counting   =      2505.92954221    -2478.77095305
  entropy T*S    EENTRO =        -0.00000000
  eigenvalues    EBANDS =      -817.70073546
  atomic energy  EATOM  =      3319.71562210
  ---------------------------------------------------
  free energy    TOTEN  =      -160.83964072 eV

  energy without entropy =     -160.83964072  energy(sigma->0) =     -160.83964072


--------------------------------------------------------------------------------------------------------




--------------------------------------- Iteration      1(   4)  ---------------------------------------


    TRIAL :  cpu time    170.1377: real time    170.2232
    CORREC:  cpu time      0.0018: real time      0.0018
    --------------------------------------------
      LOOP:  cpu time    170.1682: real time    170.2538

 eigenvalue-minimisations  : 26624
 total energy-change (2. order) :-0.2761303E-01  (-0.2761303E-01)
 number of electron      72.0000000 magnetization 
 augmentation part       72.0000000 magnetization 

 Free energy of the ion-electron system (eV)
  ---------------------------------------------------
  alpha Z        PSCENC =        60.22020652
  Ewald energy   TEWEN  =     -1241.27643166
  -Hartree energ DENC   =     -1716.25921835
  -exchange      EXHF   =         0.00000000
  -V(xc)+E(xc)   XCENC  =       207.30232699
  PAW double counting   =      2505.92954221    -2478.77095305
  entropy T*S    EENTRO =        -0.00000000
  eigenvalues    EBANDS =      -817.72834849
  atomic energy  EATOM  =      3319.71562210
  ---------------------------------------------------
  free energy    TOTEN  =      -160.86725374 eV

  energy without entropy =     -160.86725374  energy(sigma->0) =     -160.86725374


--------------------------------------------------------------------------------------------------------




--------------------------------------- Iteration      1(   5)  ---------------------------------------


    TRIAL :  cpu time     32.0952: real time     32.1118
    CORREC:  cpu time      0.0004: real time      0.0004
    CHARGE:  cpu time      0.1826: real time      0.1829
    --------------------------------------------
      LOOP:  cpu time     32.2908: real time     32.3246

 eigenvalue-minimisations  : 13312
 total energy-change (2. order) :-0.1784083E-06  (-0.1784097E-06)
 number of electron      72.0000000 magnetization 
 augmentation part        0.3900419 magnetization 

 Free energy of the ion-electron system (eV)
  ---------------------------------------------------
  alpha Z        PSCENC =        60.22020652
  Ewald energy   TEWEN  =     -1241.27643166
  -Hartree energ DENC   =     -1716.25921835
  -exchange      EXHF   =         0.00000000
  -V(xc)+E(xc)   XCENC  =       207.30232699
  PAW double counting   =      2505.92954221    -2478.77095305
  entropy T*S    EENTRO =        -0.00000000
  eigenvalues    EBANDS =      -817.72834867
  atomic energy  EATOM  =      3319.71562210
  ---------------------------------------------------
  free energy    TOTEN  =      -160.86725392 eV

  energy without entropy =     -160.86725392  energy(sigma->0) =     -160.86725392


--------------------------------------------------------------------------------------------------------




--------------------------------------- Iteration      1(   6)  ---------------------------------------


    POTLOK:  cpu time      0.0942: real time      0.0942
    SETDIJ:  cpu time      0.0045: real time      0.0045
    TRIAL :  cpu time      5.6448: real time      5.6497
    CORREC:  cpu time      1.9349: real time      1.9389
    CHARGE:  cpu time      0.1661: real time      0.1662
    --------------------------------------------
      LOOP:  cpu time      7.8597: real time      7.8809

 eigenvalue-minimisations  :     0
 total energy-change (2. order) : 0.3185445E+02  (-0.1478440E+02)
 number of electron      71.9999999 magnetization 
 augmentation part        0.2255959 magnetization 

 Free energy of the ion-electron system (eV)
  ---------------------------------------------------
  alpha Z        PSCENC =        60.22020652
  Ewald energy   TEWEN  =     -1241.27643166
  -Hartree energ DENC   =     -2118.98969313
  -exchange      EXHF   =         0.00000000
  -V(xc)+E(xc)   XCENC  =       234.16787715
  PAW double counting   =     19838.00960357   -19816.12697677
  entropy T*S    EENTRO =        -0.00000000
  eigenvalues    EBANDS =      -404.73301170
  atomic energy  EATOM  =      3319.71562210
  ---------------------------------------------------
  free energy    TOTEN  =      -129.01280392 eV

  energy without entropy =     -129.01280392  energy(sigma->0) =     -129.01280392


--------------------------------------------------------------------------------------------------------




--------------------------------------- Iteration      1(   7)  ---------------------------------------


    POTLOK:  cpu time      0.0924: real time      0.0924
    SETDIJ:  cpu time      0.0044: real time      0.0044
    TRIAL :  cpu time      4.2387: real time      4.2411
    CORREC:  cpu time      1.9195: real time      1.9206
    CHARGE:  cpu time      0.1645: real time      0.1645
    --------------------------------------------
      LOOP:  cpu time      6.4324: real time      6.4526

 eigenvalue-minimisations  :     0
 total energy-change (2. order) :-0.1484311E+02  (-0.2103795E+01)
 number of electron      72.0000000 magnetization 
 augmentation part        0.2185062 magnetization 

 Free energy of the ion-electron system (eV)
  ---------------------------------------------------
  alpha Z        PSCENC =        60.22020652
  Ewald energy   TEWEN  =     -1241.27643166
  -Hartree energ DENC   =     -1946.75809590
  -exchange      EXHF   =         0.00000000
  -V(xc)+E(xc)   XCENC  =       223.96184761
  PAW double counting   =     33934.73962582   -33909.89220347
  entropy T*S    EENTRO =        -0.00000000
  eigenvalues    EBANDS =      -584.56648530
  atomic energy  EATOM  =      3319.71562210
  ---------------------------------------------------
  free energy    TOTEN  =      -143.85591428 eV

  energy without entropy =     -143.85591428  energy(sigma->0) =     -143.85591428


--------------------------------------------------------------------------------------------------------




--------------------------------------- Iteration      1(   8)  ---------------------------------------


    POTLOK:  cpu time      0.0925: real time      0.0925
    SETDIJ:  cpu time      0.0045: real time      0.0045
    TRIAL :  cpu time      4.2273: real time      4.2310
    CORREC:  cpu time      1.9292: real time      1.9303
    CHARGE:  cpu time      0.1639: real time      0.1639
    --------------------------------------------
      LOOP:  cpu time      6.4301: real time      6.4519

 eigenvalue-minimisations  :     0
 total energy-change (2. order) :-0.2089061E+01  (-0.3124559E+00)
 number of electron      72.0000000 magnetization 
 augmentation part        0.2218439 magnetization 

 Free energy of the ion-electron system (eV)
  ---------------------------------------------------
  alpha Z        PSCENC =        60.22020652
  Ewald energy   TEWEN  =     -1241.27643166
  -Hartree energ DENC   =     -1923.41004809
  -exchange      EXHF   =         0.00000000
  -V(xc)+E(xc)   XCENC  =       222.47321105
  PAW double counting   =     28641.80692559   -28616.96404483
  entropy T*S    EENTRO =        -0.00000000
  eigenvalues    EBANDS =      -608.51041616
  atomic energy  EATOM  =      3319.71562210
  ---------------------------------------------------
  free energy    TOTEN  =      -145.94497548 eV

  energy without entropy =     -145.94497548  energy(sigma->0) =     -145.94497548


--------------------------------------------------------------------------------------------------------




--------------------------------------- Iteration      1(   9)  ---------------------------------------


    POTLOK:  cpu time      0.0924: real time      0.0924
    SETDIJ:  cpu time      0.0044: real time      0.0044
    TRIAL :  cpu time      4.2363: real time      4.2390
    CORREC:  cpu time      1.9149: real time      1.9161
    CHARGE:  cpu time      0.1669: real time      0.1669
    --------------------------------------------
      LOOP:  cpu time      6.4306: real time      6.4488

 eigenvalue-minimisations  :     0
 total energy-change (2. order) :-0.3121854E+00  (-0.4125172E-01)
 number of electron      72.0000000 magnetization 
 augmentation part        0.2221355 magnetization 

 Free energy of the ion-electron system (eV)
  ---------------------------------------------------
  alpha Z        PSCENC =        60.22020652
  Ewald energy   TEWEN  =     -1241.27643166
  -Hartree energ DENC   =     -1912.10893071
  -exchange      EXHF   =         0.00000000
  -V(xc)+E(xc)   XCENC  =       221.76853230
  PAW double counting   =     27096.99486295   -27072.17891566
  entropy T*S    EENTRO =        -0.00000000
  eigenvalues    EBANDS =      -619.39210670
  atomic energy  EATOM  =      3319.71562210
  ---------------------------------------------------
  free energy    TOTEN  =      -146.25716087 eV

  energy without entropy =     -146.25716087  energy(sigma->0) =     -146.25716087


--------------------------------------------------------------------------------------------------------




--------------------------------------- Iteration      1(  10)  ---------------------------------------


    POTLOK:  cpu time      0.0922: real time      0.0922
    SETDIJ:  cpu time      0.0045: real time      0.0045
    TRIAL :  cpu time      4.2253: real time      4.2285
    CORREC:  cpu time      1.9145: real time      1.9150
    CHARGE:  cpu time      0.1655: real time      0.1661
    --------------------------------------------
      LOOP:  cpu time      6.4327: real time      6.4372

 eigenvalue-minimisations  :     0
 total energy-change (2. order) :-0.4122408E-01  (-0.6302860E-02)
 number of electron      72.0000000 magnetization 
 augmentation part        0.2209027 magnetization 

 Free energy of the ion-electron system (eV)
  ---------------------------------------------------
  alpha Z        PSCENC =        60.22020652
  Ewald energy   TEWEN  =     -1241.27643166
  -Hartree energ DENC   =     -1910.82210004
  -exchange      EXHF   =         0.00000000
  -V(xc)+E(xc)   XCENC  =       221.65672189
  PAW double counting   =     26756.55431913   -26731.75819007
  entropy T*S    EENTRO =        -0.00000000
  eigenvalues    EBANDS =      -620.58853281
  atomic energy  EATOM  =      3319.71562210
  ---------------------------------------------------
  free energy    TOTEN  =      -146.29838495 eV

  energy without entropy =     -146.29838495  energy(sigma->0) =     -146.29838495


--------------------------------------------------------------------------------------------------------




--------------------------------------- Iteration      1(  11)  ---------------------------------------


    POTLOK:  cpu time      0.0925: real time      0.0925
    SETDIJ:  cpu time      0.0045: real time      0.0045
    TRIAL :  cpu time      4.2314: real time      4.2346
    CORREC:  cpu time      1.9307: real time      1.9318
    CHARGE:  cpu time      0.1618: real time      0.1618
    --------------------------------------------
      LOOP:  cpu time      6.4340: real time      6.4545

 eigenvalue-minimisations  :     0
 total energy-change (2. order) :-0.6298794E-02  (-0.1029017E-02)
 number of electron      72.0000000 magnetization 
 augmentation part        0.2205808 magnetization 

 Free energy of the ion-electron system (eV)
  ---------------------------------------------------
  alpha Z        PSCENC =        60.22020652
  Ewald energy   TEWEN  =     -1241.27643166
  -Hartree energ DENC   =     -1911.21313659
  -exchange      EXHF   =         0.00000000
  -V(xc)+E(xc)   XCENC  =       221.65149610
  PAW double counting   =     26857.51077351   -26832.71318732
  entropy T*S    EENTRO =        -0.00000000
  eigenvalues    EBANDS =      -620.20002640
  atomic energy  EATOM  =      3319.71562210
  ---------------------------------------------------
  free energy    TOTEN  =      -146.30468375 eV

  energy without entropy =     -146.30468375  energy(sigma->0) =     -146.30468375


--------------------------------------------------------------------------------------------------------




--------------------------------------- Iteration      1(  12)  ---------------------------------------


    POTLOK:  cpu time      0.1023: real time      0.1023
    SETDIJ:  cpu time      0.0045: real time      0.0045
    TRIAL :  cpu time      4.2399: real time      4.2424
    CORREC:  cpu time      1.9122: real time      1.9135
    CHARGE:  cpu time      0.1622: real time      0.1628
    --------------------------------------------
      LOOP:  cpu time      6.4342: real time      6.4552

 eigenvalue-minimisations  :     0
 total energy-change (2. order) :-0.1030952E-02  (-0.1484071E-03)
 number of electron      72.0000000 magnetization 
 augmentation part        0.2209168 magnetization 

 Free energy of the ion-electron system (eV)
  ---------------------------------------------------
  alpha Z        PSCENC =        60.22020652
  Ewald energy   TEWEN  =     -1241.27643166
  -Hartree energ DENC   =     -1911.15848327
  -exchange      EXHF   =         0.00000000
  -V(xc)+E(xc)   XCENC  =       221.63645909
  PAW double counting   =     26936.92991316   -26912.12647070
  entropy T*S    EENTRO =        -0.00000000
  eigenvalues    EBANDS =      -620.24652993
  atomic energy  EATOM  =      3319.71562210
  ---------------------------------------------------
  free energy    TOTEN  =      -146.30571470 eV

  energy without entropy =     -146.30571470  energy(sigma->0) =     -146.30571470


--------------------------------------------------------------------------------------------------------




--------------------------------------- Iteration      1(  13)  ---------------------------------------


    POTLOK:  cpu time      0.0922: real time      0.0922
    SETDIJ:  cpu time      0.0045: real time      0.0045
    TRIAL :  cpu time      4.2263: real time      4.2283
    CORREC:  cpu time      1.9179: real time      1.9189
    CHARGE:  cpu time      0.1664: real time      0.1664
    --------------------------------------------
      LOOP:  cpu time      6.4218: real time      6.4408

 eigenvalue-minimisations  :     0
 total energy-change (2. order) :-0.1487283E-03  (-0.1829270E-04)
 number of electron      72.0000000 magnetization 
 augmentation part        0.2209026 magnetization 

 Free energy of the ion-electron system (eV)
  ---------------------------------------------------
  alpha Z        PSCENC =        60.22020652
  Ewald energy   TEWEN  =     -1241.27643166
  -Hartree energ DENC   =     -1911.33261978
  -exchange      EXHF   =         0.00000000
  -V(xc)+E(xc)   XCENC  =       221.64110674
  PAW double counting   =     26920.65261449   -26895.85180960
  entropy T*S    EENTRO =        -0.00000000
  eigenvalues    EBANDS =      -620.07455223
  atomic energy  EATOM  =      3319.71562210
  ---------------------------------------------------
  free energy    TOTEN  =      -146.30586343 eV

  energy without entropy =     -146.30586343  energy(sigma->0) =     -146.30586343


--------------------------------------------------------------------------------------------------------




--------------------------------------- Iteration      1(  14)  ---------------------------------------


    POTLOK:  cpu time      0.0921: real time      0.0922
    SETDIJ:  cpu time      0.0045: real time      0.0045
    TRIAL :  cpu time      4.2610: real time      4.2637
    CORREC:  cpu time      1.9100: real time      1.9112
    CHARGE:  cpu time      0.1685: real time      0.1685
    --------------------------------------------
      LOOP:  cpu time      6.4514: real time      6.4705

 eigenvalue-minimisations  :     0
 total energy-change (2. order) :-0.1849401E-04  (-0.2686700E-05)
 number of electron      72.0000000 magnetization 
 augmentation part        0.2209076 magnetization 

 Free energy of the ion-electron system (eV)
  ---------------------------------------------------
  alpha Z        PSCENC =        60.22020652
  Ewald energy   TEWEN  =     -1241.27643166
  -Hartree energ DENC   =     -1911.29204535
  -exchange      EXHF   =         0.00000000
  -V(xc)+E(xc)   XCENC  =       221.63842514
  PAW double counting   =     26917.74567678   -26892.94432513
  entropy T*S    EENTRO =        -0.00000000
  eigenvalues    EBANDS =      -620.11301032
  atomic energy  EATOM  =      3319.71562210
  ---------------------------------------------------
  free energy    TOTEN  =      -146.30588192 eV

  energy without entropy =     -146.30588192  energy(sigma->0) =     -146.30588192


--------------------------------------------------------------------------------------------------------




--------------------------------------- Iteration      1(  15)  ---------------------------------------


    POTLOK:  cpu time      0.0916: real time      0.0920
    SETDIJ:  cpu time      0.0044: real time      0.0044
    TRIAL :  cpu time      4.2300: real time      4.2330
    CORREC:  cpu time      1.9126: real time      1.9136
    CHARGE:  cpu time      0.1639: real time      0.1639
    --------------------------------------------
      LOOP:  cpu time      6.4323: real time      6.4369

 eigenvalue-minimisations  :     0
 total energy-change (2. order) :-0.2615834E-05  (-0.3446274E-06)
 number of electron      72.0000000 magnetization 
 augmentation part        0.2208996 magnetization 

 Free energy of the ion-electron system (eV)
  ---------------------------------------------------
  alpha Z        PSCENC =        60.22020652
  Ewald energy   TEWEN  =     -1241.27643166
  -Hartree energ DENC   =     -1911.29340182
  -exchange      EXHF   =         0.00000000
  -V(xc)+E(xc)   XCENC  =       221.63855896
  PAW double counting   =     26919.41151233   -26894.61028205
  entropy T*S    EENTRO =        -0.00000000
  eigenvalues    EBANDS =      -620.11166891
  atomic energy  EATOM  =      3319.71562210
  ---------------------------------------------------
  free energy    TOTEN  =      -146.30588454 eV

  energy without entropy =     -146.30588454  energy(sigma->0) =     -146.30588454


--------------------------------------------------------------------------------------------------------




--------------------------------------- Iteration      1(  16)  ---------------------------------------


    POTLOK:  cpu time      0.0923: real time      0.0923
    SETDIJ:  cpu time      0.0044: real time      0.0044
    TRIAL :  cpu time      4.2408: real time      4.2440
    CORREC:  cpu time      1.9103: real time      1.9113
    CHARGE:  cpu time      0.1650: real time      0.1650
    --------------------------------------------
      LOOP:  cpu time      6.4260: real time      6.4476

 eigenvalue-minimisations  :     0
 total energy-change (2. order) :-0.3509049E-06  (-0.3461922E-07)
 number of electron      72.0000000 magnetization 
 augmentation part        0.2209027 magnetization 

 Free energy of the ion-electron system (eV)
  ---------------------------------------------------
  alpha Z        PSCENC =        60.22020652
  Ewald energy   TEWEN  =     -1241.27643166
  -Hartree energ DENC   =     -1911.28764267
  -exchange      EXHF   =         0.00000000
  -V(xc)+E(xc)   XCENC  =       221.63825981
  PAW double counting   =     26920.49179086   -26895.69048166
  entropy T*S    EENTRO =        -0.00000000
  eigenvalues    EBANDS =      -620.11720818
  atomic energy  EATOM  =      3319.71562210
  ---------------------------------------------------
  free energy    TOTEN  =      -146.30588489 eV

  energy without entropy =     -146.30588489  energy(sigma->0) =     -146.30588489


--------------------------------------------------------------------------------------------------------




--------------------------------------- Iteration      1(  17)  ---------------------------------------


    POTLOK:  cpu time      0.0994: real time      0.0994
    SETDIJ:  cpu time      0.0045: real time      0.0045
    TRIAL :  cpu time      4.2911: real time      4.2941
    CORREC:  cpu time      1.9121: real time      1.9131
    EDDIAG:  cpu time      1.9195: real time      1.9213
    CHARGE:  cpu time      0.1651: real time      0.1651
    --------------------------------------------
      LOOP:  cpu time      8.4062: real time      8.4263

 eigenvalue-minimisations  :     0
 total energy-change (2. order) :-0.3467721E-07  (-0.5817673E-08)
 number of electron      72.0000000 magnetization 
 augmentation part        0.2209042 magnetization 

 Free energy of the ion-electron system (eV)
  ---------------------------------------------------
  alpha Z        PSCENC =        60.22020652
  Ewald energy   TEWEN  =     -1241.27643166
  -Hartree energ DENC   =     -1911.28757999
  -exchange      EXHF   =         0.00000000
  -V(xc)+E(xc)   XCENC  =       221.63828036
  PAW double counting   =     26920.37671486   -26895.57542639
  entropy T*S    EENTRO =        -0.00000000
  eigenvalues    EBANDS =      -620.11727071
  atomic energy  EATOM  =      3319.71562210
  ---------------------------------------------------
  free energy    TOTEN  =      -146.30588492 eV

  energy without entropy =     -146.30588492  energy(sigma->0) =     -146.30588492


--------------------------------------------------------------------------------------------------------


  average scaling for gradient   1.2144


 average (electrostatic) potential at core
  the test charge radii are     0.5770  0.5902  0.5955  0.4325
  (the norm of the test charge is              1.0000)
       1 -81.5559       2 -81.5558       3 -83.0506       4 -83.0503       5 -85.5831
       6 -85.5826       7 -99.5025       8 -99.5030       9-115.9283      10-115.9277
      11-114.4582      12-114.4572      13 -40.9115      14 -40.9114      15 -40.8261
      16 -40.8260      17 -40.7632      18 -40.7630      19 -41.0394      20 -41.0393
      21 -40.9491      22 -40.9488      23 -42.5735      24 -42.5737      25 -42.5273
      26 -42.5266



 E-fermi :  -1.5384     XC(G=0):  -7.3437     alpha+bet : -6.1241

 Fermi energy:        -1.5383756024

 k-point     1 :       0.0000    0.0000    0.0000
  band No.  band energies     occupation 
      1     -22.7771      2.00000
      2     -22.7199      2.00000
      3     -20.4326      2.00000
      4     -20.3717      2.00000
      5     -17.6341      2.00000
      6     -17.5888      2.00000
      7     -14.2092      2.00000
      8     -14.0688      2.00000
      9     -11.2609      2.00000
     10     -10.9879      2.00000
     11      -9.7783      2.00000
     12      -9.6728      2.00000
     13      -9.0584      2.00000
     14      -8.8642      2.00000
     15      -8.0750      2.00000
     16      -7.6390      2.00000
     17      -7.4437      2.00000
     18      -6.7416      2.00000
     19      -6.4553      2.00000
     20      -6.1944      2.00000
     21      -5.6101      2.00000
     22      -5.4700      2.00000
     23      -5.0799      2.00000
     24      -4.9019      2.00000
     25      -4.6514      2.00000
     26      -4.5231      2.00000
     27      -3.8877      2.00000
[...]
    118      24.6738      0.00000
    119      24.8223      0.00000
    120      25.1798      0.00000
    121      25.5894      0.00000
    122      25.9223      0.00000
    123      26.0067      0.00000
    124      26.4545      0.00000
    125      26.5654      0.00000
    126      26.6421      0.00000
    127      26.8960      0.00000
    128      27.1771      0.00000

 k-point    51 :       0.3333    0.5000    0.5000
  band No.  band energies     occupation 
      1     -22.7393      2.00000
      2     -22.7233      2.00000
      3     -20.4262      2.00000
      4     -20.3651      2.00000
      5     -17.7575      2.00000
      6     -17.6875      2.00000
      7     -14.1304      2.00000
      8     -14.0934      2.00000
      9     -11.1423      2.00000
     10     -11.0694      2.00000
     11      -9.5158      2.00000
     12      -9.4285      2.00000
     13      -8.7876      2.00000
     14      -8.7226      2.00000
     15      -8.0475      2.00000
     16      -7.4482      2.00000
     17      -7.3197      2.00000
     18      -7.0931      2.00000
     19      -6.8072      2.00000
     20      -6.1518      2.00000
     21      -5.7107      2.00000
     22      -5.6033      2.00000
     23      -5.2516      2.00000
     24      -5.0961      2.00000
     25      -4.7486      2.00000
     26      -4.4799      2.00000
     27      -4.0655      2.00000
     28      -4.0221      2.00000
     29      -3.7014      2.00000
     30      -3.6165      2.00000
     31      -2.5725      2.00000
     32      -2.3439      2.00000
     33      -2.2240      2.00000
     34      -1.9972      2.00000
     35      -1.7276      2.00000
     36      -1.6977      2.00000
     37       4.5365      0.00000
     38       4.7423      0.00000
     39       5.2798      0.00000
     40       5.7409      0.00000
     41       6.0880      0.00000
     42       6.3140      0.00000
     43       6.5854      0.00000
     44       6.7360      0.00000
     45       7.2069      0.00000
     46       7.3843      0.00000
     47       7.6395      0.00000
     48       8.2498      0.00000
     49       8.4941      0.00000
     50       8.6824      0.00000
     51       8.8140      0.00000
     52       9.1366      0.00000
     53       9.3880      0.00000
     54       9.7425      0.00000
     55       9.9556      0.00000
     56      10.2846      0.00000
     57      10.5080      0.00000
     58      10.6309      0.00000
     59      10.8027      0.00000
     60      10.8637      0.00000
     61      11.1866      0.00000
     62      11.5389      0.00000
     63      11.8204      0.00000
     64      11.9114      0.00000
     65      12.1828      0.00000
     66      12.5132      0.00000
     67      12.7804      0.00000
     68      13.0370      0.00000
     69      13.3068      0.00000
     70      13.6831      0.00000
     71      13.7187      0.00000
     72      14.2830      0.00000
     73      14.2891      0.00000
     74      14.7741      0.00000
     75      15.2891      0.00000
     76      15.3847      0.00000
     77      15.5591      0.00000
     78      15.7235      0.00000
     79      15.8465      0.00000
     80      16.1014      0.00000
     81      16.1945      0.00000
     82      16.5538      0.00000
     83      16.7851      0.00000
     84      16.8698      0.00000
     85      17.3154      0.00000
     86      17.4719      0.00000
     87      17.8696      0.00000
     88      18.0800      0.00000
     89      18.1575      0.00000
     90      18.3186      0.00000
     91      18.7297      0.00000
     92      18.9658      0.00000
     93      19.0928      0.00000
     94      19.3831      0.00000
     95      19.4584      0.00000
     96      19.8812      0.00000
     97      20.0753      0.00000
     98      20.2790      0.00000
     99      20.4707      0.00000
    100      20.5881      0.00000
    101      20.7541      0.00000
    102      21.0471      0.00000
    103      21.2006      0.00000
    104      21.5323      0.00000
    105      21.7898      0.00000
    106      22.0444      0.00000
    107      22.3622      0.00000
    108      22.5033      0.00000
    109      22.5807      0.00000
    110      22.9612      0.00000
    111      23.0139      0.00000
    112      23.4139      0.00000
    113      23.8529      0.00000
    114      24.0182      0.00000
    115      24.1881      0.00000
    116      24.3117      0.00000
    117      24.4640      0.00000
    118      24.6397      0.00000
    119      24.8924      0.00000
    120      25.1039      0.00000
    121      25.4770      0.00000
    122      25.5589      0.00000
    123      25.8789      0.00000
    124      26.1048      0.00000
    125      26.1892      0.00000
    126      26.4223      0.00000
    127      26.6435      0.00000
    128      26.9222      0.00000

 k-point    52 :       0.5000    0.5000    0.5000
  band No.  band energies     occupation 
      1     -22.7341      2.00000
      2     -22.7173      2.00000
      3     -20.4203      2.00000
      4     -20.3652      2.00000
      5     -17.7962      2.00000
      6     -17.7195      2.00000
      7     -14.1237      2.00000
      8     -14.1008      2.00000
      9     -11.0773      2.00000
     10     -11.0717      2.00000
     11      -9.4591      2.00000
     12      -9.3918      2.00000
     13      -8.6806      2.00000
     14      -8.6320      2.00000
     15      -7.8123      2.00000
     16      -7.5190      2.00000
     17      -7.3363      2.00000
     18      -7.0944      2.00000
     19      -6.9364      2.00000
     20      -6.4677      2.00000
     21      -5.7265      2.00000
     22      -5.6134      2.00000
     23      -5.2862      2.00000
     24      -5.1699      2.00000
     25      -4.7428      2.00000
     26      -4.4867      2.00000
     27      -4.0392      2.00000
     28      -4.0375      2.00000
     29      -3.6887      2.00000
     30      -3.5718      2.00000
     31      -2.5322      2.00000
     32      -2.4174      2.00000
     33      -2.2500      2.00000
     34      -2.0223      2.00000
     35      -1.7814      2.00000
     36      -1.7138      2.00000
     37       4.5892      0.00000
     38       4.7937      0.00000
     39       5.4267      0.00000
     40       5.8421      0.00000
     41       6.1375      0.00000
     42       6.4462      0.00000
     43       6.7958      0.00000
     44       6.8691      0.00000
     45       6.9752      0.00000
     46       7.0918      0.00000
     47       7.5031      0.00000
     48       8.0046      0.00000
     49       8.4701      0.00000
     50       8.6500      0.00000
     51       8.8093      0.00000
     52       9.1579      0.00000
     53       9.7024      0.00000
     54       9.7096      0.00000
     55       9.8921      0.00000
     56      10.3086      0.00000
     57      10.4603      0.00000
     58      10.6894      0.00000
     59      10.8164      0.00000
     60      11.0499      0.00000
     61      11.3870      0.00000
     62      11.4366      0.00000
     63      11.9233      0.00000
     64      11.9269      0.00000
     65      12.5749      0.00000
     66      12.6802      0.00000
     67      12.8568      0.00000
     68      13.0913      0.00000
     69      13.1685      0.00000
     70      13.4653      0.00000
     71      13.9334      0.00000
     72      13.9611      0.00000
     73      14.6896      0.00000
     74      14.9296      0.00000
     75      14.9441      0.00000
     76      15.3255      0.00000
     77      15.3428      0.00000
     78      15.5147      0.00000
     79      15.9943      0.00000
     80      16.0807      0.00000
     81      16.5103      0.00000
     82      16.8382      0.00000
     83      16.9805      0.00000
     84      17.0440      0.00000
     85      17.1657      0.00000
     86      17.5742      0.00000
     87      17.6898      0.00000
     88      17.8506      0.00000
     89      18.1383      0.00000
     90      18.3485      0.00000
     91      18.3737      0.00000
     92      18.5717      0.00000
     93      19.0021      0.00000
     94      19.2691      0.00000
     95      19.4593      0.00000
     96      19.6581      0.00000
     97      19.9627      0.00000
     98      20.1247      0.00000
     99      20.5603      0.00000
    100      20.7816      0.00000
    101      20.8027      0.00000
    102      20.9996      0.00000
    103      21.2367      0.00000
    104      21.3017      0.00000
    105      21.7292      0.00000
    106      22.1308      0.00000
    107      22.2554      0.00000
    108      22.4696      0.00000
    109      22.4772      0.00000
    110      22.7005      0.00000
    111      22.8944      0.00000
    112      23.0079      0.00000
    113      23.6873      0.00000
    114      24.2203      0.00000
    115      24.2982      0.00000
    116      24.3331      0.00000
    117      24.5634      0.00000
    118      24.5874      0.00000
    119      24.8741      0.00000
    120      24.9311      0.00000
    121      25.0409      0.00000
    122      25.5001      0.00000
    123      25.8199      0.00000
    124      25.9747      0.00000
    125      26.0147      0.00000
    126      26.2914      0.00000
    127      26.5230      0.00000
    128      26.5732      0.00000


--------------------------------------------------------------------------------------------------------


 soft charge-density along one line, spin component           1
         0         1         2         3         4         5         6         7         8         9
 total charge-density along one line

 pseudopotential strength for first ion, spin component:           1
 12.493  21.019  -0.002  -0.001  -0.002  -0.003  -0.001  -0.003
 21.019  35.364  -0.003  -0.001  -0.003  -0.005  -0.002  -0.005
 -0.002  -0.003  -3.194  -0.000  -0.000  -5.719  -0.000  -0.000
 -0.001  -0.001  -0.000  -3.194  -0.000  -0.000  -5.719  -0.000
 -0.002  -0.003  -0.000  -0.000  -3.194  -0.000  -0.000  -5.719
 -0.003  -0.005  -5.719  -0.000  -0.000 -10.218  -0.000  -0.000
 -0.001  -0.002  -0.000  -5.719  -0.000  -0.000 -10.218  -0.000
 -0.003  -0.005  -0.000  -0.000  -5.719  -0.000  -0.000 -10.218
 total augmentation occupancy for first ion, spin component:           1
  6.163  -1.945  -0.069  -0.035  -0.061   0.050   0.025   0.037
 -1.945   0.630   0.059   0.029   0.046  -0.036  -0.018  -0.024
 -0.069   0.059   5.082   0.053   0.059  -1.537  -0.040  -0.039
 -0.035   0.029   0.053   5.005   0.034  -0.040  -1.481  -0.024
 -0.061   0.046   0.059   0.034   5.008  -0.040  -0.024  -1.484
  0.050  -0.036  -1.537  -0.040  -0.040   0.471   0.021   0.020
  0.025  -0.018  -0.040  -1.481  -0.024   0.021   0.443   0.012
  0.037  -0.024  -0.039  -0.024  -1.484   0.020   0.012   0.443


------------------------ aborting loop because EDIFF is reached ----------------------------------------


    FORLOC:  cpu time      0.0051: real time      0.0051
    FORNL :  cpu time      1.4326: real time      1.4331
    FORCOR:  cpu time      0.0945: real time      0.0945
    OFIELD:  cpu time      0.0036: real time      0.0039
 WARNING: Using user supplied parameters
     VDW_S8 = 1.682
     VDW_SR = 1.094
     because the xc functional is not supported. Required parameters not
     defined in the INCAR file will be replaced with PBE defaults ones.


 ---------------------------------------------------------------------------------------------

         DFTD3 V3.0 Rev 1        
 IVDW         = 11
 DF unknown   
 parameters
 VDW_S6       =    1.0000
 VDW_S8       =    1.6820
 VDW_SR       =    1.0940
 rs18     =    1.0000
 alpha6   =   14.0000
 alpha8   =   16.0000
 k1-k3    =   16.0000    1.3333   -4.0000
 VDW_RADIUS   =   50.2022 A
 VDW_CNRADIUS =   21.1671 A
 Edisp (eV)   -2.02900

 E6    (eV) :    -1.0447
 E8    (eV) :    -0.9843
 % E8        : 48.51
    FORVDW:  cpu time      0.3512: real time      0.3562

 VOLUME and BASIS-vectors are now :
 -----------------------------------------------------------------------------
  energy-cutoff  :     1000.00
  volume of cell :      248.77
      direct lattice vectors                 reciprocal lattice vectors
     5.051000000  0.000000000  0.000000000     0.197980598 -0.046983007  0.045053615
     1.618830000  6.821550000  0.000000000    -0.000000000  0.146594249  0.021882239
    -1.898810000 -1.077750000  7.220100000     0.000000000  0.000000000  0.138502237

  length of vectors
     5.051000000  7.011002423  7.543001292     0.208407169  0.148218441  0.138502237


 FORCES acting on ions:
    Electron-Ion                     Ewald-Force                    Non-Local-Force
 -----------------------------------------------------------------------------------------------
   -.902E+01 -.881E+02 -.548E+02   0.100E+02 0.892E+02 0.552E+02   -.983E+00 -.979E+00 -.333E+00
   0.902E+01 0.881E+02 0.548E+02   -.100E+02 -.892E+02 -.552E+02   0.983E+00 0.978E+00 0.332E+00
   0.104E+03 -.612E+02 -.376E+02   -.114E+03 0.679E+02 0.389E+02   0.988E+01 -.691E+01 -.138E+01
   -.104E+03 0.612E+02 0.376E+02   0.114E+03 -.679E+02 -.389E+02   -.988E+01 0.691E+01 0.138E+01
   -.407E+02 0.288E+02 -.169E+02   0.397E+02 -.326E+02 0.143E+02   0.118E+01 0.393E+01 0.270E+01
   0.407E+02 -.288E+02 0.168E+02   -.397E+02 0.326E+02 -.143E+02   -.118E+01 -.393E+01 -.270E+01
   -.116E+03 0.105E+03 -.381E+02   0.120E+03 -.111E+03 0.426E+02   -.433E+01 0.637E+01 -.463E+01
   0.116E+03 -.105E+03 0.380E+02   -.120E+03 0.111E+03 -.426E+02   0.433E+01 -.636E+01 0.463E+01
   -.149E+03 -.929E+02 -.106E+03   0.189E+03 0.110E+03 0.121E+03   -.401E+02 -.166E+02 -.146E+02
   0.149E+03 0.929E+02 0.106E+03   -.189E+03 -.110E+03 -.121E+03   0.401E+02 0.166E+02 0.146E+02
   0.202E+03 0.716E+02 0.523E+02   -.246E+03 -.830E+02 -.666E+02   0.448E+02 0.114E+02 0.143E+02
   -.202E+03 -.716E+02 -.523E+02   0.246E+03 0.830E+02 0.666E+02   -.448E+02 -.114E+02 -.143E+02
   0.372E+02 -.363E+02 -.184E+02   -.413E+02 0.398E+02 0.196E+02   0.420E+01 -.360E+01 -.123E+01
   -.372E+02 0.363E+02 0.184E+02   0.413E+02 -.398E+02 -.196E+02   -.420E+01 0.360E+01 0.123E+01
   -.283E+02 -.526E+01 -.359E+02   0.310E+02 0.415E+01 0.406E+02   -.277E+01 0.117E+01 -.482E+01
   0.283E+02 0.527E+01 0.359E+02   -.310E+02 -.415E+01 -.406E+02   0.276E+01 -.117E+01 0.482E+01
   -.316E+02 -.277E+02 0.108E+02   0.351E+02 0.303E+02 -.141E+02   -.362E+01 -.273E+01 0.346E+01
   0.316E+02 0.277E+02 -.108E+02   -.351E+02 -.303E+02 0.141E+02   0.362E+01 0.273E+01 -.346E+01
   0.485E+02 0.143E+02 -.378E+02   -.523E+02 -.170E+02 0.412E+02   0.380E+01 0.276E+01 -.352E+01
   -.485E+02 -.143E+02 0.378E+02   0.523E+02 0.170E+02 -.412E+02   -.380E+01 -.276E+01 0.352E+01
   0.339E+02 -.188E+02 0.316E+02   -.367E+02 0.199E+02 -.366E+02   0.285E+01 -.118E+01 0.512E+01
   -.339E+02 0.188E+02 -.316E+02   0.367E+02 -.199E+02 0.366E+02   -.285E+01 0.118E+01 -.512E+01
   -.519E+02 -.127E+02 -.214E+02   0.588E+02 0.153E+02 0.226E+02   -.693E+01 -.262E+01 -.122E+01
   0.519E+02 0.127E+02 0.214E+02   -.588E+02 -.153E+02 -.226E+02   0.694E+01 0.262E+01 0.122E+01
   -.584E+01 0.480E+02 0.196E+02   0.517E+01 -.541E+02 -.235E+02   0.696E+00 0.618E+01 0.396E+01
   0.584E+01 -.480E+02 -.196E+02   -.518E+01 0.541E+02 0.235E+02   -.695E+00 -.618E+01 -.396E+01
 -----------------------------------------------------------------------------------------------
   0.128E-02 -.662E-02 -.538E-02   -.124E-13 0.995E-13 0.604E-13   -.129E-02 0.662E-02 0.538E-02


 POSITION                                       TOTAL-FORCE (eV/Angst)
 -----------------------------------------------------------------------------------
      4.94844      5.03869      2.64154         0.072781      0.244030      0.103578
     -0.17729      0.70496      4.57866        -0.072801     -0.244734     -0.103974
      4.39308      3.78968      1.99505        -0.297320      0.029977     -0.017232
      0.37806      1.95399      5.22510         0.296647     -0.029788      0.017816
      0.20252      1.74281      1.10683         0.046456     -0.082346     -0.029634
      4.56847      4.00089      6.11328        -0.038270      0.078258      0.028468
      1.28874      0.96879      0.95087         0.178097     -0.142913     -0.061074
      3.48237      4.77480      6.26928        -0.182788      0.150688      0.064883
      0.48145      2.91027      1.73336         0.167272      0.035062      0.057889
      4.28966      2.83336      5.48678        -0.168392     -0.034769     -0.057838
      4.10717      1.42487      0.74293        -0.189469     -0.091027     -0.073320
      0.66392      4.31883      6.47703         0.187849      0.091502      0.073470
      4.12460      5.72648      2.87648         0.092608     -0.035521     -0.017751
      0.64658      0.01720      4.34376        -0.092502      0.035307      0.017667
      0.42570      4.80066      3.57369        -0.053600      0.041231     -0.068773
      4.34549      0.94291      3.64645         0.053595     -0.041111      0.069174
      5.64429      5.55594      1.96830        -0.070950     -0.023642      0.062300
     -0.87312      0.18765      5.25189         0.071162      0.024123     -0.062516
      3.69175      3.26461      2.65942         0.050929      0.053381     -0.060191
      1.07940      2.47903      4.56073        -0.050896     -0.053159      0.060108
      3.88355      4.00550      1.04758         0.019608      0.005130      0.080214
      0.88758      1.73816      6.17258        -0.019581     -0.004947     -0.080237
      2.22576      1.33808      1.11945        -0.044932     -0.056639     -0.035675
      2.54533      4.40553      6.10072         0.044689      0.056592      0.035530
      1.18581      0.11386      0.39366         0.051155      0.061621      0.043181
      3.58527      5.62994      6.82644        -0.051346     -0.066303     -0.046064
 -----------------------------------------------------------------------------------
    total drift:                               -0.000001      0.000001     -0.000001


--------------------------------------------------------------------------------------------------------



  FREE ENERGIE OF THE ION-ELECTRON SYSTEM (eV)
  ---------------------------------------------------
  free  energy   TOTEN  =      -148.33488412 eV

  energy  without entropy=     -148.33488412  energy(sigma->0) =     -148.33488412



--------------------------------------------------------------------------------------------------------


    POTLOK:  cpu time      0.1078: real time      0.1078


--------------------------------------------------------------------------------------------------------


 stress matrix after NEB project (eV)
     -2.12372     -0.18379     -0.00034
     -0.18379     -2.43455      0.47890
     -0.00034      0.47890     -3.08851
  FORCES: max atom, RMS     0.299323    0.169730
  FORCE total and by dimension    0.865455    0.297320
  Stress total and by dimension    4.527952    3.088506
     LOOP+:  cpu time    432.1283: real time    432.5778
    4ORBIT:  cpu time      0.0000: real time      0.0000

 total amount of memory used by VASP MPI-rank0   191097. kBytes
=======================================================================

   base      :      30000. kBytes
   nonl-proj :     124760. kBytes
   fftplans  :       5371. kBytes
   grid      :       7926. kBytes
   one-center:         39. kBytes
   wavefun   :      23001. kBytes

  
  
 General timing and accounting informations for this job:
 ========================================================
  
                  Total CPU time used (sec):      462.765
                            User time (sec):      460.728
                          System time (sec):        2.037
                         Elapsed time (sec):      467.316
  
                   Maximum memory used (kb):      442388.
                   Average memory used (kb):          N/A
  
                          Minor page faults:        78843
                          Major page faults:         1180
                 Voluntary context switches:         6168
