 vasp.6.4.1 05Apr23 (build Jun  6 2023 14:46:38) gamma-only                      
 executed on        HPECrayEX_GCC date 2024.07.23  08:46:54
 running  512 mpi-ranks, with    1 threads/rank, on    4 nodes
 distrk:  each k-point on  512 cores,    1 groups
 distr:  one band on NCORE=   1 cores,  512 groups


--------------------------------------------------------------------------------------------------------


 INCAR:
   ISMEAR = 0
   SIGMA = 0.01
   PREC = Accurate
   EDIFF = 1E-8
   ENCUT = 1000
   ISIF = 2
   IBRION = 6
   POTIM = 0.008
   NFREE = 2
   EDIFF = 10-7
   GGA = ML
   LUSE_VDW = .TRUE.
   ZAB_VDW = -1.8867
   AGGAC = 0.0000
   LASPH = .TRUE.
   SYMPREC = 1E-7
   ALGO = Conjugate
   LWAVE = .FALSE.
   LCHARG = .FALSE.

 POTCAR:    PAW_PBE C_h 06Feb2004                 
 POTCAR:    PAW_PBE H_h 06Feb2004                 
 POTCAR:    PAW_PBE N_h 06Feb2004                 
 -----------------------------------------------------------------------------
|                                                                             |
|               ----> ADVICE to this user running VASP <----                  |
|                                                                             |
|     You have switched on vdW-DFT.                                           |
|     This routine was written and supplied by Jiri Klimes. We recommend      |
|     that you carefully read and cite the following publications:            |
|       J. Klimes, D.R. Bowler, A. Michelides                                 |
|          J. Phys.: Cond Matt. 22 022201 (2010)                              |
|       J. Klimes, D.R. Bowler, A. Michelides                                 |
|          Phys. Rev. B. 83, 195131 (2011)                                    |
|     and references therein.                                                 |
|                                                                             |
 -----------------------------------------------------------------------------

 POTCAR:    PAW_PBE C_h 06Feb2004                 
   VRHFIN =C: s2p2                                                                                  
   LEXCH  = PE                                                                                      
   EATOM  =   147.1560 eV,   10.8157 Ry                                                             
                                                                                                    
   TITEL  = PAW_PBE C_h 06Feb2004                                                                   
   LULTRA =        F    use ultrasoft PP ?                                                          
   IUNSCR =        1    unscreen: 0-lin 1-nonlin 2-no                                               
   RPACOR =    0.800    partial core radius                                                         
   POMASS =   12.011; ZVAL   =    4.000    mass and valenz                                          
   RCORE  =    1.100    outmost cutoff radius                                                       
   RWIGS  =    1.630; RWIGS  =    0.863    wigner-seitz radius (au A)                               
   ENMAX  =  700.000; ENMIN  =  500.000 eV                                                          
   ICORE  =        2    local potential                                                             
   LCOR   =        T    correct aug charges                                                         
   LPAW   =        T    paw PP                                                                      
   EAUG   =  946.768                                                                                
   DEXC   =    0.000                                                                                
   RMAX   =    1.128    core radius for proj-oper                                                   
   RAUG   =    1.300    factor for augmentation sphere                                              
   RDEP   =    1.162    radius for radial grids                                                     
   RDEPT  =    1.088    core radius for aug-charge                                                  
                                                                                                    
   Atomic configuration                                                                             
    4 entries                                                                                       
     n  l   j            E        occ.                                                              
     1  0  0.50      -273.3789   2.0000                                                             
     2  0  0.50       -13.7508   2.0000                                                             
     2  1  0.50        -5.2854   2.0000                                                             
     3  2  1.50        -5.4423   0.0000                                                             
   Description                                                                                      
     l       E           TYP  RCUT    TYP  RCUT                                                     
     0    -13.7508458     23  1.100                                                                 
     0     -8.2022199     23  1.100                                                                 
     1     -5.2854383     23  1.100                                                                 
     1      1.1560700     23  1.100                                                                 
     2     -5.4423304      7  1.100                                                                 
  local pseudopotential read in
  partial core-charges read in
  partial kinetic energy density read in
  atomic valenz-charges read in
  non local Contribution for L=           0  read in
    real space projection operators read in
  non local Contribution for L=           0  read in
    real space projection operators read in
  non local Contribution for L=           1  read in
    real space projection operators read in
  non local Contribution for L=           1  read in
    real space projection operators read in
    PAW grid and wavefunctions read in

   number of l-projection  operators is LMAX  =           4
   number of lm-projection operators is LMMAX =           8

 POTCAR:    PAW_PBE H_h 06Feb2004                 
   VRHFIN =H: ultrasoft test                                                                        
   LEXCH  = PE                                                                                      
   EATOM  =    12.4884 eV,    0.9179 Ry                                                             
                                                                                                    
   TITEL  = PAW_PBE H_h 06Feb2004                                                                   
   LULTRA =        F    use ultrasoft PP ?                                                          
   IUNSCR =        0    unscreen: 0-lin 1-nonlin 2-no                                               
   RPACOR =    0.000    partial core radius                                                         
   POMASS =    1.000; ZVAL   =    1.000    mass and valenz                                          
   RCORE  =    0.800    outmost cutoff radius                                                       
   RWIGS  =    0.700; RWIGS  =    0.370    wigner-seitz radius (au A)                               
   ENMAX  =  700.000; ENMIN  =  350.000 eV                                                          
   RCLOC  =    0.701    cutoff for local pot                                                        
   LCOR   =        T    correct aug charges                                                         
   LPAW   =        T    paw PP                                                                      
   EAUG   = 1000.000                                                                                
   RMAX   =    0.819    core radius for proj-oper                                                   
   RAUG   =    1.000    factor for augmentation sphere                                              
   RDEP   =    0.817    radius for radial grids                                                     
   RDEPT  =    0.817    core radius for aug-charge                                                  
                                                                                                    
   Atomic configuration                                                                             
    2 entries                                                                                       
     n  l   j            E        occ.                                                              
     1  0  0.50        -6.4927   1.0000                                                             
     2  1  0.50        -3.4015   0.0000                                                             
   Description                                                                                      
     l       E           TYP  RCUT    TYP  RCUT                                                     
     0     -6.4927493     23  0.800                                                                 
     0      6.8029130     23  0.800                                                                 
     1     -6.8029130     23  0.800                                                                 
  local pseudopotential read in
  atomic valenz-charges read in
  non local Contribution for L=           0  read in
    real space projection operators read in
  non local Contribution for L=           0  read in
    real space projection operators read in
  non local Contribution for L=           1  read in
    real space projection operators read in
    PAW grid and wavefunctions read in

   number of l-projection  operators is LMAX  =           3
   number of lm-projection operators is LMMAX =           5

 POTCAR:    PAW_PBE N_h 06Feb2004                 
   VRHFIN =N: s2p3                                                                                  
   LEXCH  = PE                                                                                      
   EATOM  =   264.5486 eV,   19.4438 Ry                                                             
                                                                                                    
   TITEL  = PAW_PBE N_h 06Feb2004                                                                   
   LULTRA =        F    use ultrasoft PP ?                                                          
   IUNSCR =        1    unscreen: 0-lin 1-nonlin 2-no                                               
   RPACOR =    0.800    partial core radius                                                         
   POMASS =   14.001; ZVAL   =    5.000    mass and valenz                                          
   RCORE  =    1.100    outmost cutoff radius                                                       
   RWIGS  =    1.480; RWIGS  =    0.783    wigner-seitz radius (au A)                               
   ENMAX  =  700.000; ENMIN  =  500.000 eV                                                          
   ICORE  =        2    local potential                                                             
   LCOR   =        T    correct aug charges                                                         
   LPAW   =        T    paw PP                                                                      
   EAUG   =  904.640                                                                                
   DEXC   =    0.000                                                                                
   RMAX   =    1.127    core radius for proj-oper                                                   
   RAUG   =    1.300    factor for augmentation sphere                                              
   RDEP   =    1.115    radius for radial grids                                                     
   RDEPT  =    1.106    core radius for aug-charge                                                  
                                                                                                    
   Atomic configuration                                                                             
    4 entries                                                                                       
     n  l   j            E        occ.                                                              
     1  0  0.50      -384.7179   2.0000                                                             
     2  0  0.50       -18.5828   2.0000                                                             
     2  1  0.50        -7.0898   3.0000                                                             
     3  2  1.50        -6.8029   0.0000                                                             
   Description                                                                                      
     l       E           TYP  RCUT    TYP  RCUT                                                     
     0    -18.5828117     23  1.100                                                                 
     0    -15.0750597     23  1.100                                                                 
     1     -7.0897851     23  1.100                                                                 
     1     -1.9663412     23  1.100                                                                 
     2     -6.8029130      7  1.100                                                                 
  local pseudopotential read in
  partial core-charges read in
  partial kinetic energy density read in
  kinetic energy density of atom read in
  atomic valenz-charges read in
  non local Contribution for L=           0  read in
    real space projection operators read in
  non local Contribution for L=           0  read in
    real space projection operators read in
  non local Contribution for L=           1  read in
    real space projection operators read in
  non local Contribution for L=           1  read in
    real space projection operators read in
    PAW grid and wavefunctions read in

   number of l-projection  operators is LMAX  =           4
   number of lm-projection operators is LMMAX =           8

 -----------------------------------------------------------------------------
|                                                                             |
|               ----> ADVICE to this user running VASP <----                  |
|                                                                             |
|     You enforced a specific xc type in the INCAR file but a different       |
|     type was found in the POTCAR file.                                      |
|     I HOPE YOU KNOW WHAT YOU ARE DOING!                                     |
|                                                                             |
 -----------------------------------------------------------------------------

  PAW_PBE C_h 06Feb2004                 :
 energy of atom  1       EATOM= -147.1560
 kinetic energy error for atom=    0.0031 (will be added to EATOM!!)
  PAW_PBE H_h 06Feb2004                 :
 energy of atom  2       EATOM=  -12.4884
 kinetic energy error for atom=    0.0006 (will be added to EATOM!!)
  PAW_PBE N_h 06Feb2004                 :
 energy of atom  3       EATOM= -264.5486
 kinetic energy error for atom=    0.0081 (will be added to EATOM!!)


 POSCAR:  C  H  N
  positions in direct lattice
  velocities in cartesian coordinates
 exchange correlation table for  LEXCH =       44
   RHO(1)=    0.500       N(1)  =     2000
   RHO(2)=  100.500       N(2)  =     4000

 VTST: version 4.1, (05/19/21)

 CHAIN: initializing optimizer
 
 OPT: Using VASP Dynamics algorithm
 CHAIN: Read ICHAIN            0

 POSCAR:  C  H  N
  positions in direct lattice
  velocities in cartesian coordinates



--------------------------------------------------------------------------------------------------------


 ion  position               nearest neighbor table
   1  0.224  0.231  0.227-   5 1.08   7 1.34   8 1.34
   2  0.309  0.287  0.227-   4 1.08   7 1.34   9 1.34
   3  0.217  0.333  0.227-   6 1.08   9 1.34   8 1.34
   4  0.358  0.290  0.227-   2 1.08
   5  0.202  0.187  0.227-   1 1.08
   6  0.190  0.374  0.227-   3 1.08
   7  0.285  0.232  0.227-   1 1.34   2 1.34
   8  0.187  0.280  0.227-   3 1.34   1 1.34
   9  0.278  0.340  0.227-   3 1.34   2 1.34

  LATTYP: Found a simple cubic cell.
 ALAT       =    22.0000000000
  
  Lattice vectors:
  
 A1 = (  22.0000000000,   0.0000000000,   0.0000000000)
 A2 = (   0.0000000000,  22.0000000000,   0.0000000000)
 A3 = (   0.0000000000,   0.0000000000,  22.0000000000)


Analysis of symmetry for initial positions (statically):
=====================================================================
 Subroutine PRICEL returns:
 Original cell was already a primitive cell.
 

 Routine SETGRP: Setting up the symmetry group for a 
 simple cubic supercell.


 Subroutine GETGRP returns: Found  1 space group operations
 (whereof  1 operations were pure point group operations)
 out of a pool of 48 trial point group operations.


The static configuration has the point symmetry C_1 .


Analysis of symmetry for dynamics (positions and initial velocities):
=====================================================================
 Subroutine PRICEL returns:
 Original cell was already a primitive cell.
 

 Routine SETGRP: Setting up the symmetry group for a 
 simple cubic supercell.


 Subroutine GETGRP returns: Found  1 space group operations
 (whereof  1 operations were pure point group operations)
 out of a pool of 48 trial point group operations.


The dynamic configuration has the point symmetry C_1 .


 Subroutine INISYM returns: Found  1 space group operations
 (whereof  1 operations are pure point group operations),
 and found     1 'primitive' translations


----------------------------------------------------------------------------------------

                                     Primitive cell                                     

  volume of cell :   10648.0000

  direct lattice vectors                    reciprocal lattice vectors
    22.000000000  0.000000000  0.000000000     0.045454545  0.000000000  0.000000000
     0.000000000 22.000000000  0.000000000     0.000000000  0.045454545  0.000000000
     0.000000000  0.000000000 22.000000000     0.000000000  0.000000000  0.045454545

  length of vectors
    22.000000000 22.000000000 22.000000000     0.045454545  0.045454545  0.045454545

  position of ions in fractional coordinates (direct lattice)
     0.223616434  0.230907565  0.227269927
     0.309215219  0.287413338  0.227273814
     0.217480411  0.333291248  0.227273487
     0.358410444  0.290361550  0.227275001
     0.201572076  0.186829053  0.227267877
     0.190329184  0.374421429  0.227274414
     0.284655870  0.231528843  0.227271351
     0.187498677  0.280118684  0.227270677
     0.278157139  0.339964655  0.227275270

  ion indices of the primitive-cell ions
   primitive index   ion index
                 1           1
                 2           2
                 3           3
                 4           4
                 5           5
                 6           6
                 7           7
                 8           8
                 9           9

----------------------------------------------------------------------------------------



 KPOINTS: auto                                    

Automatic generation of k-mesh.
 Grid dimensions read from file:
 generate k-points for:    1    1    1

 Generating k-lattice:

  Cartesian coordinates                     Fractional coordinates (reciprocal lattice)
     0.045454545  0.000000000  0.000000000     1.000000000  0.000000000  0.000000000
     0.000000000  0.045454545  0.000000000     0.000000000  1.000000000  0.000000000
     0.000000000  0.000000000  0.045454545     0.000000000  0.000000000  1.000000000

  Length of vectors
     0.045454545  0.045454545  0.045454545

  Shift w.r.t. Gamma in fractional coordinates (k-lattice)
     0.000000000  0.000000000  0.000000000

 
 Subroutine IBZKPT returns following result:
 ===========================================
 
 Found      1 irreducible k-points:
 
 Following reciprocal coordinates:
            Coordinates               Weight
  0.000000  0.000000  0.000000      1.000000
 
 Following cartesian coordinates:
            Coordinates               Weight
  0.000000  0.000000  0.000000      1.000000
 
 
 Subroutine IBZKPT_HF returns following result:
 ==============================================
 
 Found      1 k-points in 1st BZ
 the following      1 k-points will be used (e.g. in the exchange kernel)
 Following reciprocal coordinates:   # in IRBZ
  0.000000  0.000000  0.000000    1.00000000   1 t-inv F


--------------------------------------------------------------------------------------------------------




 Dimension of arrays:
   k-points           NKPTS =      1   k-points in BZ     NKDIM =      1   number of bands    NBANDS=    512
   number of dos      NEDOS =    301   number of ions     NIONS =      9
   non local maximal  LDIM  =      4   non local SUM 2l+1 LMDIM =      8
   total plane-waves  NPLWV = ******
   max r-space proj   IRMAX =      1   max aug-charges    IRDMAX=   9419
   dimension x,y,z NGX =   240 NGY =  240 NGZ =  240
   dimension x,y,z NGXF=   480 NGYF=  480 NGZF=  480
   support grid    NGXF=   480 NGYF=  480 NGZF=  480
   ions per type =               3   3   3
   NGX,Y,Z   is equivalent  to a cutoff of  18.14, 18.14, 18.14 a.u.
   NGXF,Y,Z  is equivalent  to a cutoff of  36.27, 36.27, 36.27 a.u.

 SYSTEM =  unknown system                          
 POSCAR =   C  H  N                                

 Startparameter for this run:
   NWRITE =      2    write-flag & timer
   PREC   = accura    normal or accurate (medium, high low for compatibility)
   ISTART =      0    job   : 0-new  1-cont  2-samecut
   ICHARG =      2    charge: 1-file 2-atom 10-const
   ISPIN  =      1    spin polarized calculation?
   LNONCOLLINEAR =      F non collinear calculations
   LSORBIT =      F    spin-orbit coupling
   INIWAV =      1    electr: 0-lowe 1-rand  2-diag
   LASPH  =      T    aspherical Exc in radial PAW
 Electronic Relaxation 1
   ENCUT  = 1000.0 eV  73.50 Ry    8.57 a.u.  56.73 56.73 56.73*2*pi/ulx,y,z
   ENINI  = 1000.0     initial cutoff
   ENAUG  = 1000.0 eV  augmentation charge cutoff
   NELM   =     60;   NELMIN=  2; NELMDL= -5     # of ELM steps 
   EDIFF  = 0.1E-07   stopping-criterion for ELM
   LREAL  =      F    real-space projection
   NLSPLINE    = F    spline interpolate recip. space projectors
   LCOMPAT=      F    compatible to vasp.4.4
   GGA_COMPAT  = T    GGA compatible to vasp.4.4-vasp.4.6
   LMAXPAW     = -100 max onsite density
   LMAXMIX     =    2 max onsite mixed and CHGCAR
   VOSKOWN=      0    Vosko Wilk Nusair interpolation
   ROPT   =    0.00000   0.00000   0.00000
 Ionic relaxation
   EDIFFG = 0.1E-06   stopping-criterion for IOM
   NSW    =    145    number of steps for IOM
   NBLOCK =      1;   KBLOCK =    145    inner block; outer block 
   IBRION =      6    ionic relax: 0-MD 1-quasi-New 2-CG
   NFREE  =      2    steps in history (QN), initial steepest desc. (CG)
   ISIF   =      2    stress and relaxation
   IWAVPR =     11    prediction:  0-non 1-charg 2-wave 3-comb
   ISYM   =      2    0-nonsym 1-usesym 2-fastsym
   LCORR  =      T    Harris-Foulkes like correction to forces

   POTIM  = 0.0080    time-step for ionic-motion
   TEIN   =    0.0    initial temperature
   TEBEG  =    0.0;   TEEND  =   0.0 temperature during run
   SMASS  =  -3.00    Nose mass-parameter (am)
   estimated Nose-frequenzy (Omega)   =  0.10E-29 period in steps = 0.79E+48 mass=  -0.111E-25a.u.
   SCALEE = 1.0000    scale energy and forces
   NPACO  =    256;   APACO  = 10.0  distance and # of slots for P.C.
   PSTRESS=    0.0 pullay stress

  Mass of Ions in am
   POMASS =  12.01  1.00 14.00
  Ionic Valenz
   ZVAL   =   4.00  1.00  5.00
  Atomic Wigner-Seitz radii
   RWIGS  =  -1.00 -1.00 -1.00
  virtual crystal weights 
   VCA    =   1.00  1.00  1.00
   NELECT =      30.0000    total number of electrons
   NUPDOWN=      -1.0000    fix difference up-down

 DOS related values:
   EMIN   =  10.00;   EMAX   =-10.00  energy-range for DOS
   EFERMI =   0.00;   METHOD = LEGACY      
   ISMEAR =     0;   SIGMA  =   0.01  broadening in eV -4-tet -1-fermi 0-gaus

 Electronic relaxation 2 (details)
   IALGO  =     58    algorithm
   LDIAG  =      T    sub-space diagonalisation (order eigenvalues)
   LSUBROT=      F    optimize rotation matrix (better conditioning)
   TURBO    =      0    0=normal 1=particle mesh
   IRESTART =      0    0=no restart 2=restart with 2 vectors
   NREBOOT  =      0    no. of reboots
   NMIN     =      0    reboot dimension
   EREF     =   0.00    reference energy to select bands
   IMIX   =      4    mixing-type and parameters
     AMIX     =   0.40;   BMIX     =  1.00
     AMIX_MAG =   1.60;   BMIX_MAG =  1.00
     AMIN     =   0.10
     WC   =   100.;   INIMIX=   1;  MIXPRE=   1;  MAXMIX= -45

 Intra band minimization:
   WEIMIN = 0.0010     energy-eigenvalue tresh-hold
   EBREAK =  0.49E-11  absolut break condition
   DEPER  =   0.30     relativ break condition  

   TIME   =   0.40     timestep for ELM

  volume/ion in A,a.u.               =    1183.11      7984.03
  Fermi-wavevector in a.u.,A,eV,Ry     =   0.231220  0.436943  0.727406  0.053463
  Thomas-Fermi vector in A             =   1.025338

 Write flags
   LWAVE        =      F    write WAVECAR
   LDOWNSAMPLE  =      F    k-point downsampling of WAVECAR
   LCHARG       =      F    write CHGCAR
   LVTOT        =      F    write LOCPOT, total local potential
   LVHAR        =      F    write LOCPOT, Hartree potential only
   LELF         =      F    write electronic localiz. function (ELF)
   LORBIT       =      0    0 simple, 1 ext, 2 COOP (PROOUT), +10 PAW based schemes


 Dipole corrections
   LMONO  =      F    monopole corrections only (constant potential shift)
   LDIPOL =      F    correct potential (dipole corrections)
   IDIPOL =      0    1-x, 2-y, 3-z, 4-all directions 
   EPSILON=  1.0000000 bulk dielectric constant

 Exchange correlation treatment:
   GGA     =    ML    GGA type
   LEXCH   =    44    internal setting for exchange type
   LIBXC   =     F    Libxc                    
   VOSKOWN =     0    Vosko Wilk Nusair interpolation
   LHFCALC =     F    Hartree Fock is set to
   LHFONE  =     F    Hartree Fock one center treatment
   AEXX    =    0.0000 exact exchange contribution

 vdW DFT:
   LUSE_VDW   =     T    switch on vdW DFT
   IVDW_NL    =     1    kernel type
   LSPIN_VDW  =     F    use spin-polarized vdW DFT
   Zab_VDW    =******    correlation parameter
   PARAM1     =0.1234
   PARAM2     =1.0000
   PARAM3     =0.0000
   -- rVV10 --
   BPARAM     = 6.3000
   CPARAM     = 0.0093

 Linear response parameters
   LEPSILON=     F    determine dielectric tensor
   LRPA    =     F    only Hartree local field effects (RPA)
   LNABLA  =     F    use nabla operator in PAW spheres
   LVEL    =     F    velocity operator in full k-point grid
   CSHIFT  =0.1000    complex shift for real part using Kramers Kronig
   OMEGAMAX=  -1.0    maximum frequency
   DEG_THRESHOLD= 0.2000000E-02 threshold for treating states as degnerate
   RTIME   =   -0.100 relaxation time in fs
  (WPLASMAI=    0.000 imaginary part of plasma frequency in eV, 0.658/RTIME)
   DFIELD  = 0.0000000 0.0000000 0.0000000 field for delta impulse in time

  Optional k-point grid parameters
   LKPOINTS_OPT  =     F    use optional k-point grid
   KPOINTS_OPT_MODE=     1    mode for optional k-point grid

 Orbital magnetization related:
   ORBITALMAG=     F  switch on orbital magnetization
   LCHIMAG   =     F  perturbation theory with respect to B field
   DQ        =  0.001000  dq finite difference perturbation B field
   LLRAUG    =     F  two centre corrections for induced B field
   LBONE     =     F  B-component reconstruction in AE one-centre
   LVGVCALC  =     T  calculate vGv susceptibility
   LVGVAPPL  =     F  apply vGv susceptibility instead of pGv for G=0

 Random number generation:
   RANDOM_GENERATOR = DEFAULT
   PCG_SEED         = not used


--------------------------------------------------------------------------------------------------------


 finite differences with symmetry
 charge density and potential will be updated during run
 non-spin polarized calculation
 Conjugate gradient for all bands (Freysoldt, et al. PRB 79, 241103 (2009))
 preconditioned conjugated gradient                                        
 perform sub-space diagonalisation
    before iterative eigenvector-optimisation
 modified Broyden-mixing scheme, WC =      100.0
 initial mixing is a Kerker type mixing with AMIX =  0.4000 and BMIX =      1.0000
 Hartree-type preconditioning will be used
 using additional bands          497
 reciprocal scheme for non local part
 use partial core corrections
 no Harris-corrections to forces 
 use gradient corrections 
 use of overlap-Matrix (Vanderbilt PP)
 Gauss-broadening in eV      SIGMA  =   0.01


--------------------------------------------------------------------------------------------------------


  energy-cutoff  :     1000.00
  volume of cell :    10648.00
      direct lattice vectors                 reciprocal lattice vectors
    22.000000000  0.000000000  0.000000000     0.045454545  0.000000000  0.000000000
     0.000000000 22.000000000  0.000000000     0.000000000  0.045454545  0.000000000
     0.000000000  0.000000000 22.000000000     0.000000000  0.000000000  0.045454545

  length of vectors
    22.000000000 22.000000000 22.000000000     0.045454545  0.045454545  0.045454545



 k-points in units of 2pi/SCALE and weight: auto                                    
   0.00000000  0.00000000  0.00000000       1.000

 k-points in reciprocal lattice and weights: auto                                    
   0.00000000  0.00000000  0.00000000       1.000

 position of ions in fractional coordinates (direct lattice) 
   0.22361643  0.23090757  0.22726993
   0.30921522  0.28741334  0.22727381
   0.21748041  0.33329125  0.22727349
   0.35841044  0.29036155  0.22727500
   0.20157208  0.18682905  0.22726788
   0.19032918  0.37442143  0.22727441
   0.28465587  0.23152884  0.22727135
   0.18749868  0.28011868  0.22727068
   0.27815714  0.33996465  0.22727527

 position of ions in cartesian coordinates  (Angst):
   4.91956155  5.07996644  4.99993838
   6.80273482  6.32309344  5.00002391
   4.78456904  7.33240745  5.00001671
   7.88502977  6.38795409  5.00005002
   4.43458566  4.11023916  4.99989330
   4.18724204  8.23727143  5.00003710
   6.26242914  5.09363455  4.99996972
   4.12497090  6.16261104  4.99995490
   6.11945706  7.47922240  5.00005595



--------------------------------------------------------------------------------------------------------


 use serial FFT for orbitals x direction half grid
 k-point   1 :   0.0000 0.0000 0.0000  plane waves:  381993

 maximum and minimum number of plane-waves per node :    381993   381993

 maximum number of plane-waves:    381993
 maximum index in each direction: 
   IXMAX=   56   IYMAX=   56   IZMAX=   56
   IXMIN=    0   IYMIN=  -56   IZMIN=  -56


 serial   3D FFT for wavefunctions
 parallel 3D FFT for charge:
    minimum data exchange during FFTs selected (reduces bandwidth)


 total amount of memory used by VASP MPI-rank0   809315. kBytes
=======================================================================

   base      :      30000. kBytes
   nonl-proj :     128507. kBytes
   fftplans  :      63753. kBytes
   grid      :     568673. kBytes
   one-center:         13. kBytes
   wavefun   :      18369. kBytes

     INWAV:  cpu time      0.0002: real time      0.0002
 Broyden mixing: mesh for mixing (old mesh)
   NGX =113   NGY =113   NGZ =113
  (NGX  =480   NGY  =480   NGZ  =480)
  gives a total of ****** points

 initial charge density was supplied:
 charge density of overlapping atoms calculated
 number of electron      30.0000000 magnetization 
 keeping initial charge density in first step


--------------------------------------------------------------------------------------------------------


 Maximum index for augmentation-charges            0 (set IRDMAX)


--------------------------------------------------------------------------------------------------------


 First call to EWALD:  gamma=   0.081
 Maximum number of real-space cells 3x 3x 3
 Maximum number of reciprocal cells 3x 3x 3

    FEWALD:  cpu time      0.0026: real time      0.0027


--------------------------------------- Ionic step        1  -------------------------------------------




--------------------------------------- Iteration      1(   1)  ---------------------------------------


vdW kernel read from vdw_kernel.bindat
  0.0000  0.2424  0.5071  0.7962  1.1119  1.4567  1.8333  2.2446  2.6937  3.1842
  3.7199  4.3049  4.9438  5.6415  6.4036  7.2358  8.1446  9.1372 10.2212 11.4050
 12.6979 14.1099 15.6519 17.3360 19.1751 21.1837 23.3773 25.7729 28.3892 31.2465
 34.3669 37.7748 41.4965 45.5611 50.0000

    POTLOK:  cpu time     13.7994: real time     13.8299
    SETDIJ:  cpu time      0.0794: real time      0.0802
    TRIAL :  cpu time     17.0464: real time     17.0557
    CORREC:  cpu time      0.0034: real time      0.0034
    --------------------------------------------
      LOOP:  cpu time     30.9472: real time     30.9881

 eigenvalue-minimisations  :  1024
 total energy-change (2. order) : 0.2873327E+03  (-0.1625942E+04)
 number of electron      30.0000000 magnetization 
 augmentation part       30.0000000 magnetization 

 Free energy of the ion-electron system (eV)
  ---------------------------------------------------
  alpha Z        PSCENC =         0.26191385
  Ewald energy   TEWEN  =      2078.87476734
  -Hartree energ DENC   =     -2992.08226056
  -exchange      EXHF   =         0.00000000
  -V(xc)+E(xc)   XCENC  =        71.24668068
  PAW double counting   =       973.92571067     -953.01151657
  entropy T*S    EENTRO =        -0.00244281
  eigenvalues    EBANDS =      -190.23789868
  atomic energy  EATOM  =      1298.35778955
  ---------------------------------------------------
  free energy    TOTEN  =       287.33274348 eV

  energy without entropy =      287.33518628  energy(sigma->0) =      287.33396488


--------------------------------------------------------------------------------------------------------




--------------------------------------- Iteration      1(   2)  ---------------------------------------


    TRIAL :  cpu time     82.7716: real time     82.8130
    CORREC:  cpu time      0.0002: real time      0.0002
    --------------------------------------------
      LOOP:  cpu time     82.7999: real time     82.8416

 eigenvalue-minimisations  :  2048
 total energy-change (2. order) :-0.3441375E+03  (-0.3437360E+03)
 number of electron      30.0000000 magnetization 
 augmentation part       30.0000000 magnetization 

 Free energy of the ion-electron system (eV)
  ---------------------------------------------------
  alpha Z        PSCENC =         0.26191385
  Ewald energy   TEWEN  =      2078.87476734
  -Hartree energ DENC   =     -2992.08226056
  -exchange      EXHF   =         0.00000000
  -V(xc)+E(xc)   XCENC  =        71.24668068
  PAW double counting   =       973.92571067     -953.01151657
  entropy T*S    EENTRO =        -0.00000000
  eigenvalues    EBANDS =      -534.37783135
  atomic energy  EATOM  =      1298.35778955
  ---------------------------------------------------
  free energy    TOTEN  =       -56.80474639 eV

  energy without entropy =      -56.80474639  energy(sigma->0) =      -56.80474639


--------------------------------------------------------------------------------------------------------




--------------------------------------- Iteration      1(   3)  ---------------------------------------


    TRIAL :  cpu time     18.3751: real time     18.3833
    CORREC:  cpu time      0.0002: real time      0.0002
    --------------------------------------------
      LOOP:  cpu time     18.3908: real time     18.4143

 eigenvalue-minimisations  :  1024
 total energy-change (2. order) :-0.1228388E+01  (-0.1228388E+01)
 number of electron      30.0000000 magnetization 
 augmentation part       30.0000000 magnetization 

 Free energy of the ion-electron system (eV)
  ---------------------------------------------------
  alpha Z        PSCENC =         0.26191385
  Ewald energy   TEWEN  =      2078.87476734
  -Hartree energ DENC   =     -2992.08226056
  -exchange      EXHF   =         0.00000000
  -V(xc)+E(xc)   XCENC  =        71.24668068
  PAW double counting   =       973.92571067     -953.01151657
  entropy T*S    EENTRO =        -0.00000000
  eigenvalues    EBANDS =      -535.60621900
  atomic energy  EATOM  =      1298.35778955
  ---------------------------------------------------
  free energy    TOTEN  =       -58.03313404 eV

  energy without entropy =      -58.03313404  energy(sigma->0) =      -58.03313404


--------------------------------------------------------------------------------------------------------




--------------------------------------- Iteration      1(   4)  ---------------------------------------


    TRIAL :  cpu time     80.6700: real time     80.7123
    CORREC:  cpu time      0.0002: real time      0.0002
    --------------------------------------------
      LOOP:  cpu time     80.6996: real time     80.7420

 eigenvalue-minimisations  :  2048
 total energy-change (2. order) :-0.4985661E-02  (-0.4985662E-02)
 number of electron      30.0000000 magnetization 
 augmentation part       30.0000000 magnetization 

 Free energy of the ion-electron system (eV)
  ---------------------------------------------------
  alpha Z        PSCENC =         0.26191385
  Ewald energy   TEWEN  =      2078.87476734
  -Hartree energ DENC   =     -2992.08226056
  -exchange      EXHF   =         0.00000000
  -V(xc)+E(xc)   XCENC  =        71.24668068
  PAW double counting   =       973.92571067     -953.01151657
  entropy T*S    EENTRO =        -0.00000000
  eigenvalues    EBANDS =      -535.61120466
  atomic energy  EATOM  =      1298.35778955
  ---------------------------------------------------
  free energy    TOTEN  =       -58.03811970 eV

  energy without entropy =      -58.03811970  energy(sigma->0) =      -58.03811970


--------------------------------------------------------------------------------------------------------




--------------------------------------- Iteration      1(   5)  ---------------------------------------


    TRIAL :  cpu time     18.2256: real time     18.2343
    CORREC:  cpu time      0.0002: real time      0.0002
    CHARGE:  cpu time      2.4541: real time      2.4582
    --------------------------------------------
      LOOP:  cpu time     20.6946: real time     20.7236

 eigenvalue-minimisations  :  1024
 total energy-change (2. order) :-0.1030667E-06  (-0.1262784E-06)
 number of electron      30.0000000 magnetization 
 augmentation part       -0.0748555 magnetization 

 Free energy of the ion-electron system (eV)
  ---------------------------------------------------
  alpha Z        PSCENC =         0.26191385
  Ewald energy   TEWEN  =      2078.87476734
  -Hartree energ DENC   =     -2992.08226056
  -exchange      EXHF   =         0.00000000
  -V(xc)+E(xc)   XCENC  =        71.24668068
  PAW double counting   =       973.92571067     -953.01151657
  entropy T*S    EENTRO =        -0.00000000
  eigenvalues    EBANDS =      -535.61120476
  atomic energy  EATOM  =      1298.35778955
  ---------------------------------------------------
  free energy    TOTEN  =       -58.03811980 eV

  energy without entropy =      -58.03811980  energy(sigma->0) =      -58.03811980


--------------------------------------------------------------------------------------------------------




--------------------------------------- Iteration      1(   6)  ---------------------------------------


    POTLOK:  cpu time     12.3833: real time     12.3868
    SETDIJ:  cpu time      0.0702: real time      0.0702
    TRIAL :  cpu time      4.9829: real time      4.9902
    CORREC:  cpu time     16.2095: real time     16.2150
    CHARGE:  cpu time      2.4151: real time      2.4163
    --------------------------------------------
      LOOP:  cpu time     36.0770: real time     36.1086

 eigenvalue-minimisations  :     0
 total energy-change (2. order) : 0.1126389E+02  (-0.4444084E+01)
 number of electron      30.0000000 magnetization 
 augmentation part       -0.1050101 magnetization 

 Free energy of the ion-electron system (eV)
  ---------------------------------------------------
  alpha Z        PSCENC =         0.26191385
  Ewald energy   TEWEN  =      2078.87476734
  -Hartree energ DENC   =     -3219.10943360
  -exchange      EXHF   =         0.00000000
  -V(xc)+E(xc)   XCENC  =        81.67252326
  PAW double counting   =      6542.79634081    -6524.58660109
  entropy T*S    EENTRO =        -0.00000000
  eigenvalues    EBANDS =      -305.04152768
  atomic energy  EATOM  =      1298.35778955
  ---------------------------------------------------
  free energy    TOTEN  =       -46.77422755 eV

  energy without entropy =      -46.77422755  energy(sigma->0) =      -46.77422755


--------------------------------------------------------------------------------------------------------




--------------------------------------- Iteration      1(   7)  ---------------------------------------


    POTLOK:  cpu time     12.3906: real time     12.3941
    SETDIJ:  cpu time      0.0701: real time      0.0701
    TRIAL :  cpu time      4.7979: real time      4.8000
    CORREC:  cpu time     15.9590: real time     15.9639
    CHARGE:  cpu time      2.4026: real time      2.4032
    --------------------------------------------
      LOOP:  cpu time     35.6508: real time     35.6621

 eigenvalue-minimisations  :     0
 total energy-change (2. order) :-0.4445083E+01  (-0.7260120E+00)
 number of electron      30.0000000 magnetization 
 augmentation part       -0.1175058 magnetization 

 Free energy of the ion-electron system (eV)
  ---------------------------------------------------
  alpha Z        PSCENC =         0.26191385
  Ewald energy   TEWEN  =      2078.87476734
  -Hartree energ DENC   =     -3131.84937915
  -exchange      EXHF   =         0.00000000
  -V(xc)+E(xc)   XCENC  =        77.86624665
  PAW double counting   =      9392.95866826    -9373.77516854
  entropy T*S    EENTRO =        -0.00000000
  eigenvalues    EBANDS =      -393.91414868
  atomic energy  EATOM  =      1298.35778955
  ---------------------------------------------------
  free energy    TOTEN  =       -51.21931072 eV

  energy without entropy =      -51.21931072  energy(sigma->0) =      -51.21931072


--------------------------------------------------------------------------------------------------------




--------------------------------------- Iteration      1(   8)  ---------------------------------------


    POTLOK:  cpu time     12.4303: real time     12.4337
    SETDIJ:  cpu time      0.0700: real time      0.0701
    TRIAL :  cpu time      4.7699: real time      4.7720
    CORREC:  cpu time     15.9410: real time     15.9453
    CHARGE:  cpu time      2.3958: real time      2.3964
    --------------------------------------------
      LOOP:  cpu time     35.6215: real time     35.6484

 eigenvalue-minimisations  :     0
 total energy-change (2. order) :-0.7271788E+00  (-0.3429338E+00)
 number of electron      30.0000000 magnetization 
 augmentation part       -0.1157757 magnetization 

 Free energy of the ion-electron system (eV)
  ---------------------------------------------------
  alpha Z        PSCENC =         0.26191385
  Ewald energy   TEWEN  =      2078.87476734
  -Hartree energ DENC   =     -3122.20502212
  -exchange      EXHF   =         0.00000000
  -V(xc)+E(xc)   XCENC  =        77.39359607
  PAW double counting   =     10338.60184929   -10319.20126229
  entropy T*S    EENTRO =        -0.00000000
  eigenvalues    EBANDS =      -404.03012123
  atomic energy  EATOM  =      1298.35778955
  ---------------------------------------------------
  free energy    TOTEN  =       -51.94648954 eV

  energy without entropy =      -51.94648954  energy(sigma->0) =      -51.94648954


--------------------------------------------------------------------------------------------------------




--------------------------------------- Iteration      1(   9)  ---------------------------------------


    POTLOK:  cpu time     12.3283: real time     12.3313
    SETDIJ:  cpu time      0.0698: real time      0.0700
    TRIAL :  cpu time      4.7418: real time      4.7438
    CORREC:  cpu time     16.0670: real time     16.0718
    CHARGE:  cpu time      2.3965: real time      2.3976
    --------------------------------------------
      LOOP:  cpu time     35.6205: real time     35.6453

 eigenvalue-minimisations  :     0
 total energy-change (2. order) :-0.3394107E+00  (-0.1136351E+00)
 number of electron      30.0000000 magnetization 
 augmentation part       -0.1139102 magnetization 

 Free energy of the ion-electron system (eV)
  ---------------------------------------------------
  alpha Z        PSCENC =         0.26191385
  Ewald energy   TEWEN  =      2078.87476734
  -Hartree energ DENC   =     -3111.55701882
  -exchange      EXHF   =         0.00000000
  -V(xc)+E(xc)   XCENC  =        76.96598137
  PAW double counting   =     10611.83137220   -10592.33623427
  entropy T*S    EENTRO =        -0.00000000
  eigenvalues    EBANDS =      -414.68447141
  atomic energy  EATOM  =      1298.35778955
  ---------------------------------------------------
  free energy    TOTEN  =       -52.28590019 eV

  energy without entropy =      -52.28590019  energy(sigma->0) =      -52.28590019


--------------------------------------------------------------------------------------------------------




--------------------------------------- Iteration      1(  10)  ---------------------------------------


    POTLOK:  cpu time     12.4657: real time     12.4691
    SETDIJ:  cpu time      0.0700: real time      0.0700
    TRIAL :  cpu time      4.7428: real time      4.7449
    CORREC:  cpu time     16.0758: real time     16.0807
    CHARGE:  cpu time      2.3928: real time      2.3939
    --------------------------------------------
      LOOP:  cpu time     35.7605: real time     35.7897

 eigenvalue-minimisations  :     0
 total energy-change (2. order) :-0.1131074E+00  (-0.3131773E-01)
 number of electron      30.0000000 magnetization 
 augmentation part       -0.1132401 magnetization 

 Free energy of the ion-electron system (eV)
  ---------------------------------------------------
  alpha Z        PSCENC =         0.26191385
  Ewald energy   TEWEN  =      2078.87476734
  -Hartree energ DENC   =     -3105.48582523
  -exchange      EXHF   =         0.00000000
  -V(xc)+E(xc)   XCENC  =        76.79386385
  PAW double counting   =     10173.18892248   -10153.70931614
  entropy T*S    EENTRO =        -0.00000000
  eigenvalues    EBANDS =      -420.68112332
  atomic energy  EATOM  =      1298.35778955
  ---------------------------------------------------
  free energy    TOTEN  =       -52.39900762 eV

  energy without entropy =      -52.39900762  energy(sigma->0) =      -52.39900762


--------------------------------------------------------------------------------------------------------




--------------------------------------- Iteration      1(  11)  ---------------------------------------


    POTLOK:  cpu time     12.3097: real time     12.3136
    SETDIJ:  cpu time      0.0700: real time      0.0700
    TRIAL :  cpu time      4.7823: real time      4.7848
    CORREC:  cpu time     16.1177: real time     16.1228
    CHARGE:  cpu time      2.3954: real time      2.3960
    --------------------------------------------
      LOOP:  cpu time     35.6893: real time     35.7181

 eigenvalue-minimisations  :     0
 total energy-change (2. order) :-0.3131523E-01  (-0.8908746E-02)
 number of electron      30.0000000 magnetization 
 augmentation part       -0.1131947 magnetization 

 Free energy of the ion-electron system (eV)
  ---------------------------------------------------
  alpha Z        PSCENC =         0.26191385
  Ewald energy   TEWEN  =      2078.87476734
  -Hartree energ DENC   =     -3104.42758819
  -exchange      EXHF   =         0.00000000
  -V(xc)+E(xc)   XCENC  =        76.77994667
  PAW double counting   =      9786.95099344    -9767.51016158
  entropy T*S    EENTRO =        -0.00000000
  eigenvalues    EBANDS =      -421.71798392
  atomic energy  EATOM  =      1298.35778955
  ---------------------------------------------------
  free energy    TOTEN  =       -52.43032285 eV

  energy without entropy =      -52.43032285  energy(sigma->0) =      -52.43032285


--------------------------------------------------------------------------------------------------------




--------------------------------------- Iteration      1(  12)  ---------------------------------------


    POTLOK:  cpu time     12.2996: real time     12.3038
    SETDIJ:  cpu time      0.0700: real time      0.0700
    TRIAL :  cpu time      4.7655: real time      4.7675
    CORREC:  cpu time     16.0718: real time     16.0769
    CHARGE:  cpu time      2.3968: real time      2.3976
    --------------------------------------------
      LOOP:  cpu time     35.6343: real time     35.6466

 eigenvalue-minimisations  :     0
 total energy-change (2. order) :-0.8910680E-02  (-0.2911208E-02)
 number of electron      30.0000000 magnetization 
 augmentation part       -0.1138339 magnetization 

 Free energy of the ion-electron system (eV)
  ---------------------------------------------------
  alpha Z        PSCENC =         0.26191385
  Ewald energy   TEWEN  =      2078.87476734
  -Hartree energ DENC   =     -3104.27146469
  -exchange      EXHF   =         0.00000000
  -V(xc)+E(xc)   XCENC  =        76.76605214
  PAW double counting   =      9628.97856278    -9609.55555241
  entropy T*S    EENTRO =        -0.00000000
  eigenvalues    EBANDS =      -421.85130209
  atomic energy  EATOM  =      1298.35778955
  ---------------------------------------------------
  free energy    TOTEN  =       -52.43923353 eV

  energy without entropy =      -52.43923353  energy(sigma->0) =      -52.43923353


--------------------------------------------------------------------------------------------------------




--------------------------------------- Iteration      1(  13)  ---------------------------------------


    POTLOK:  cpu time     12.3654: real time     12.3686
    SETDIJ:  cpu time      0.0699: real time      0.0699
    TRIAL :  cpu time      4.7408: real time      4.7430
    CORREC:  cpu time     15.8968: real time     15.9016
    CHARGE:  cpu time      2.4030: real time      2.4037
    --------------------------------------------
      LOOP:  cpu time     35.4920: real time     35.5188

 eigenvalue-minimisations  :     0
 total energy-change (2. order) :-0.2910770E-02  (-0.9599432E-03)
 number of electron      30.0000000 magnetization 
 augmentation part       -0.1143932 magnetization 

 Free energy of the ion-electron system (eV)
  ---------------------------------------------------
  alpha Z        PSCENC =         0.26191385
  Ewald energy   TEWEN  =      2078.87476734
  -Hartree energ DENC   =     -3104.32947060
  -exchange      EXHF   =         0.00000000
  -V(xc)+E(xc)   XCENC  =        76.75793014
  PAW double counting   =      9599.84396108    -9580.42399125
  entropy T*S    EENTRO =        -0.00000000
  eigenvalues    EBANDS =      -421.78504441
  atomic energy  EATOM  =      1298.35778955
  ---------------------------------------------------
  free energy    TOTEN  =       -52.44214430 eV

  energy without entropy =      -52.44214430  energy(sigma->0) =      -52.44214430


--------------------------------------------------------------------------------------------------------




--------------------------------------- Iteration      1(  14)  ---------------------------------------


    POTLOK:  cpu time     12.3542: real time     12.3576
    SETDIJ:  cpu time      0.0702: real time      0.0702
    TRIAL :  cpu time      4.7443: real time      4.7467
    CORREC:  cpu time     15.9852: real time     15.9901
    CHARGE:  cpu time      2.3956: real time      2.3962
    --------------------------------------------
      LOOP:  cpu time     35.5633: real time     35.5919

 eigenvalue-minimisations  :     0
 total energy-change (2. order) :-0.9584388E-03  (-0.2961492E-03)
 number of electron      30.0000000 magnetization 
 augmentation part       -0.1146613 magnetization 

 Free energy of the ion-electron system (eV)
  ---------------------------------------------------
  alpha Z        PSCENC =         0.26191385
  Ewald energy   TEWEN  =      2078.87476734
  -Hartree energ DENC   =     -3104.69667721
  -exchange      EXHF   =         0.00000000
  -V(xc)+E(xc)   XCENC  =        76.76661274
  PAW double counting   =      9616.47628428    -9597.05627660
  entropy T*S    EENTRO =        -0.00000000
  eigenvalues    EBANDS =      -421.42751668
  atomic energy  EATOM  =      1298.35778955
  ---------------------------------------------------
  free energy    TOTEN  =       -52.44310274 eV

  energy without entropy =      -52.44310274  energy(sigma->0) =      -52.44310274


--------------------------------------------------------------------------------------------------------




--------------------------------------- Iteration      1(  15)  ---------------------------------------


    POTLOK:  cpu time     12.3966: real time     12.4002
    SETDIJ:  cpu time      0.0699: real time      0.0700
    TRIAL :  cpu time      4.7497: real time      4.7516
    CORREC:  cpu time     15.8992: real time     15.9037
    CHARGE:  cpu time      2.4034: real time      2.4042
    --------------------------------------------
      LOOP:  cpu time     35.5363: real time     35.5616

 eigenvalue-minimisations  :     0
 total energy-change (2. order) :-0.2955435E-03  (-0.8038919E-04)
 number of electron      30.0000000 magnetization 
 augmentation part       -0.1147296 magnetization 

 Free energy of the ion-electron system (eV)
  ---------------------------------------------------
  alpha Z        PSCENC =         0.26191385
  Ewald energy   TEWEN  =      2078.87476734
  -Hartree energ DENC   =     -3104.97691613
  -exchange      EXHF   =         0.00000000
  -V(xc)+E(xc)   XCENC  =        76.77545090
  PAW double counting   =      9633.72524208    -9614.30473493
  entropy T*S    EENTRO =        -0.00000000
  eigenvalues    EBANDS =      -421.15691095
  atomic energy  EATOM  =      1298.35778955
  ---------------------------------------------------
  free energy    TOTEN  =       -52.44339828 eV

  energy without entropy =      -52.44339828  energy(sigma->0) =      -52.44339828


--------------------------------------------------------------------------------------------------------




--------------------------------------- Iteration      1(  16)  ---------------------------------------


    POTLOK:  cpu time     12.2584: real time     12.2618
    SETDIJ:  cpu time      0.0700: real time      0.0700
    TRIAL :  cpu time      4.7513: real time      4.7532
    CORREC:  cpu time     15.9454: real time     15.9500
    CHARGE:  cpu time      2.3941: real time      2.3948
    --------------------------------------------
      LOOP:  cpu time     35.4344: real time     35.4617

 eigenvalue-minimisations  :     0
 total energy-change (2. order) :-0.8040612E-04  (-0.2101846E-04)
 number of electron      30.0000000 magnetization 
 augmentation part       -0.1147082 magnetization 

 Free energy of the ion-electron system (eV)
  ---------------------------------------------------
  alpha Z        PSCENC =         0.26191385
  Ewald energy   TEWEN  =      2078.87476734
  -Hartree energ DENC   =     -3105.03761947
  -exchange      EXHF   =         0.00000000
  -V(xc)+E(xc)   XCENC  =        76.77767993
  PAW double counting   =      9641.32320840    -9621.90184679
  entropy T*S    EENTRO =        -0.00000000
  eigenvalues    EBANDS =      -421.09937149
  atomic energy  EATOM  =      1298.35778955
  ---------------------------------------------------
  free energy    TOTEN  =       -52.44347869 eV

  energy without entropy =      -52.44347869  energy(sigma->0) =      -52.44347869


--------------------------------------------------------------------------------------------------------




--------------------------------------- Iteration      1(  17)  ---------------------------------------


    POTLOK:  cpu time     12.2289: real time     12.2324
    SETDIJ:  cpu time      0.0703: real time      0.0703
    TRIAL :  cpu time      4.7430: real time      4.7448
    CORREC:  cpu time     15.9009: real time     15.9058
    CHARGE:  cpu time      2.3977: real time      2.3984
    --------------------------------------------
      LOOP:  cpu time     35.3563: real time     35.3824

 eigenvalue-minimisations  :     0
 total energy-change (2. order) :-0.2115946E-04  (-0.5837225E-05)
 number of electron      30.0000000 magnetization 
 augmentation part       -0.1146770 magnetization 

 Free energy of the ion-electron system (eV)
  ---------------------------------------------------
  alpha Z        PSCENC =         0.26191385
  Ewald energy   TEWEN  =      2078.87476734
  -Hartree energ DENC   =     -3105.05349117
  -exchange      EXHF   =         0.00000000
  -V(xc)+E(xc)   XCENC  =        76.77858604
  PAW double counting   =      9642.85645681    -9623.43478665
  entropy T*S    EENTRO =        -0.00000000
  eigenvalues    EBANDS =      -421.08473562
  atomic energy  EATOM  =      1298.35778955
  ---------------------------------------------------
  free energy    TOTEN  =       -52.44349984 eV

  energy without entropy =      -52.44349984  energy(sigma->0) =      -52.44349984


--------------------------------------------------------------------------------------------------------




--------------------------------------- Iteration      1(  18)  ---------------------------------------


    POTLOK:  cpu time     12.3410: real time     12.3445
    SETDIJ:  cpu time      0.0701: real time      0.0701
    TRIAL :  cpu time      4.7398: real time      4.7421
    CORREC:  cpu time     15.9194: real time     15.9246
    CHARGE:  cpu time      2.3925: real time      2.3930
    --------------------------------------------
      LOOP:  cpu time     35.4790: real time     35.5056

 eigenvalue-minimisations  :     0
 total energy-change (2. order) :-0.5939874E-05  (-0.1740173E-05)
 number of electron      30.0000000 magnetization 
 augmentation part       -0.1146598 magnetization 

 Free energy of the ion-electron system (eV)
  ---------------------------------------------------
  alpha Z        PSCENC =         0.26191385
  Ewald energy   TEWEN  =      2078.87476734
  -Hartree energ DENC   =     -3105.05353915
  -exchange      EXHF   =         0.00000000
  -V(xc)+E(xc)   XCENC  =        76.77884972
  PAW double counting   =      9643.13665008    -9623.71489272
  entropy T*S    EENTRO =        -0.00000000
  eigenvalues    EBANDS =      -421.08504445
  atomic energy  EATOM  =      1298.35778955
  ---------------------------------------------------
  free energy    TOTEN  =       -52.44350578 eV

  energy without entropy =      -52.44350578  energy(sigma->0) =      -52.44350578


--------------------------------------------------------------------------------------------------------




--------------------------------------- Iteration      1(  19)  ---------------------------------------


    POTLOK:  cpu time     12.2934: real time     12.2967
    SETDIJ:  cpu time      0.0700: real time      0.0700
    TRIAL :  cpu time      4.7717: real time      4.7739
    CORREC:  cpu time     15.8925: real time     15.8978
    CHARGE:  cpu time      2.3996: real time      2.4003
    --------------------------------------------
      LOOP:  cpu time     35.4423: real time     35.4703

 eigenvalue-minimisations  :     0
 total energy-change (2. order) :-0.1786291E-05  (-0.5335130E-06)
 number of electron      30.0000000 magnetization 
 augmentation part       -0.1146523 magnetization 

 Free energy of the ion-electron system (eV)
  ---------------------------------------------------
  alpha Z        PSCENC =         0.26191385
  Ewald energy   TEWEN  =      2078.87476734
  -Hartree energ DENC   =     -3105.04167377
  -exchange      EXHF   =         0.00000000
  -V(xc)+E(xc)   XCENC  =        76.77858321
  PAW double counting   =      9643.70920560    -9624.28735375
  entropy T*S    EENTRO =        -0.00000000
  eigenvalues    EBANDS =      -421.09673960
  atomic energy  EATOM  =      1298.35778955
  ---------------------------------------------------
  free energy    TOTEN  =       -52.44350757 eV

  energy without entropy =      -52.44350757  energy(sigma->0) =      -52.44350757


--------------------------------------------------------------------------------------------------------




--------------------------------------- Iteration      1(  20)  ---------------------------------------


    POTLOK:  cpu time     12.3622: real time     12.3663
    SETDIJ:  cpu time      0.0699: real time      0.0699
    TRIAL :  cpu time      4.7850: real time      4.7877
    CORREC:  cpu time     15.8911: real time     15.8957
    CHARGE:  cpu time      2.3970: real time      2.3977
    --------------------------------------------
      LOOP:  cpu time     35.5245: real time     35.5490

 eigenvalue-minimisations  :     0
 total energy-change (2. order) :-0.5457732E-06  (-0.1535399E-06)
 number of electron      30.0000000 magnetization 
 augmentation part       -0.1146496 magnetization 

 Free energy of the ion-electron system (eV)
  ---------------------------------------------------
  alpha Z        PSCENC =         0.26191385
  Ewald energy   TEWEN  =      2078.87476734
  -Hartree energ DENC   =     -3105.03602277
  -exchange      EXHF   =         0.00000000
  -V(xc)+E(xc)   XCENC  =        76.77845932
  PAW double counting   =      9644.33013934    -9624.90825778
  entropy T*S    EENTRO =        -0.00000000
  eigenvalues    EBANDS =      -421.10229697
  atomic energy  EATOM  =      1298.35778955
  ---------------------------------------------------
  free energy    TOTEN  =       -52.44350812 eV

  energy without entropy =      -52.44350812  energy(sigma->0) =      -52.44350812


--------------------------------------------------------------------------------------------------------




--------------------------------------- Iteration      1(  21)  ---------------------------------------


    POTLOK:  cpu time     12.2511: real time     12.2548
    SETDIJ:  cpu time      0.0699: real time      0.0699
    TRIAL :  cpu time      4.7731: real time      4.7755
    CORREC:  cpu time     15.9354: real time     15.9402
    CHARGE:  cpu time      2.3967: real time      2.3974
    --------------------------------------------
      LOOP:  cpu time     35.4398: real time     35.4690

 eigenvalue-minimisations  :     0
 total energy-change (2. order) :-0.1555982E-06  (-0.3716244E-07)
 number of electron      30.0000000 magnetization 
 augmentation part       -0.1146486 magnetization 

 Free energy of the ion-electron system (eV)
  ---------------------------------------------------
  alpha Z        PSCENC =         0.26191385
  Ewald energy   TEWEN  =      2078.87476734
  -Hartree energ DENC   =     -3105.03446875
  -exchange      EXHF   =         0.00000000
  -V(xc)+E(xc)   XCENC  =        76.77842996
  PAW double counting   =      9644.74415064    -9625.32227391
  entropy T*S    EENTRO =        -0.00000000
  eigenvalues    EBANDS =      -421.10381695
  atomic energy  EATOM  =      1298.35778955
  ---------------------------------------------------
  free energy    TOTEN  =       -52.44350827 eV

  energy without entropy =      -52.44350827  energy(sigma->0) =      -52.44350827


--------------------------------------------------------------------------------------------------------




--------------------------------------- Iteration      1(  22)  ---------------------------------------


    POTLOK:  cpu time     12.2342: real time     12.2376
    SETDIJ:  cpu time      0.0699: real time      0.0699
    TRIAL :  cpu time      4.7731: real time      4.7753
    CORREC:  cpu time     15.8899: real time     15.8947
    CHARGE:  cpu time      2.3993: real time      2.4005
    --------------------------------------------
      LOOP:  cpu time     35.3834: real time     35.4090

 eigenvalue-minimisations  :     0
 total energy-change (2. order) :-0.4002868E-07  (-0.9595927E-08)
 number of electron      30.0000000 magnetization 
 augmentation part       -0.1146481 magnetization 

 Free energy of the ion-electron system (eV)
  ---------------------------------------------------
  alpha Z        PSCENC =         0.26191385
  Ewald energy   TEWEN  =      2078.87476734
  -Hartree energ DENC   =     -3105.03387461
  -exchange      EXHF   =         0.00000000
  -V(xc)+E(xc)   XCENC  =        76.77840840
  PAW double counting   =      9644.89487325    -9625.47300320
  entropy T*S    EENTRO =        -0.00000000
  eigenvalues    EBANDS =      -421.10438289
  atomic energy  EATOM  =      1298.35778955
  ---------------------------------------------------
  free energy    TOTEN  =       -52.44350831 eV

  energy without entropy =      -52.44350831  energy(sigma->0) =      -52.44350831


--------------------------------------------------------------------------------------------------------




--------------------------------------- Iteration      1(  23)  ---------------------------------------


    POTLOK:  cpu time     12.2432: real time     12.2467
    SETDIJ:  cpu time      0.0697: real time      0.0697
    TRIAL :  cpu time      4.8004: real time      4.8025
    CORREC:  cpu time     16.0366: real time     16.0412
    CHARGE:  cpu time      2.3995: real time      2.4001
    --------------------------------------------
      LOOP:  cpu time     35.5652: real time     35.5914

 eigenvalue-minimisations  :     0
 total energy-change (2. order) :-0.1105400E-07  (-0.3388937E-08)
 number of electron      30.0000000 magnetization 
 augmentation part       -0.1146479 magnetization 

 Free energy of the ion-electron system (eV)
  ---------------------------------------------------
  alpha Z        PSCENC =         0.26191385
  Ewald energy   TEWEN  =      2078.87476734
  -Hartree energ DENC   =     -3105.03424363
  -exchange      EXHF   =         0.00000000
  -V(xc)+E(xc)   XCENC  =        76.77841672
  PAW double counting   =      9644.91409033    -9625.49222768
  entropy T*S    EENTRO =        -0.00000000
  eigenvalues    EBANDS =      -421.10401480
  atomic energy  EATOM  =      1298.35778955
  ---------------------------------------------------
  free energy    TOTEN  =       -52.44350832 eV

  energy without entropy =      -52.44350832  energy(sigma->0) =      -52.44350832


--------------------------------------------------------------------------------------------------------




--------------------------------------- Iteration      1(  24)  ---------------------------------------


    POTLOK:  cpu time     12.2411: real time     12.2450
    SETDIJ:  cpu time      0.0700: real time      0.0700
    TRIAL :  cpu time      4.8140: real time      4.8163
    CORREC:  cpu time     15.9270: real time     15.9317
    EDDIAG:  cpu time      1.8827: real time      1.8834
    CHARGE:  cpu time      2.4011: real time      2.4021
    --------------------------------------------
      LOOP:  cpu time     37.3501: real time     37.3797

 eigenvalue-minimisations  :     0
 total energy-change (2. order) :-0.4100002E-08  (-0.8542646E-09)
 number of electron      30.0000000 magnetization 
 augmentation part       -0.1146480 magnetization 

 Free energy of the ion-electron system (eV)
  ---------------------------------------------------
  alpha Z        PSCENC =         0.26191385
  Ewald energy   TEWEN  =      2078.87476734
  -Hartree energ DENC   =     -3105.03459824
  -exchange      EXHF   =         0.00000000
  -V(xc)+E(xc)   XCENC  =        76.77842561
  PAW double counting   =      9644.90781735    -9625.48595889
  entropy T*S    EENTRO =        -0.00000000
  eigenvalues    EBANDS =      -421.10366489
  atomic energy  EATOM  =      1298.35778955
  ---------------------------------------------------
  free energy    TOTEN  =       -52.44350833 eV

  energy without entropy =      -52.44350833  energy(sigma->0) =      -52.44350833


--------------------------------------------------------------------------------------------------------


  average scaling for gradient   1.8676


 average (electrostatic) potential at core
  the test charge radii are     0.5770  0.4325  0.5902
  (the norm of the test charge is              1.0000)
       1 -89.9152       2 -89.9151       3 -89.9152       4 -48.4105       5 -48.4109
       6 -48.4109       7-104.7578       8-104.7579       9-104.7578



 E-fermi :  -6.8439     XC(G=0):  -0.2064     alpha+bet : -0.0635

 Fermi energy:        -6.8438943937

 k-point     1 :       0.0000    0.0000    0.0000
  band No.  band energies     occupation 
      1     -26.0537      2.00000
      2     -23.0025      2.00000
      3     -23.0024      2.00000
      4     -17.5468      2.00000
      5     -17.5467      2.00000
      6     -14.1511      2.00000
      7     -14.1136      2.00000
      8     -11.6730      2.00000
      9     -11.2487      2.00000
     10     -11.2486      2.00000
     11      -9.4932      2.00000
     12      -8.7731      2.00000
     13      -8.7731      2.00000
     14      -6.9627      2.00000
     15      -6.9626      2.00000
     16      -3.0680      0.00000
     17      -3.0680      0.00000
     18      -0.8877      0.00000
     19      -0.2421      0.00000
     20      -0.2421      0.00000
     21      -0.1545      0.00000
     22       0.0575      0.00000
     23       0.1540      0.00000
     24       0.2397      0.00000
     25       0.3723      0.00000
     26       0.3760      0.00000
     27       0.4008      0.00000
     28       0.4063      0.00000
     29       0.4489      0.00000
     30       0.4640      0.00000
     31       0.5246      0.00000
     32       0.5253      0.00000
     33       0.5273      0.00000
     34       0.6209      0.00000
     35       0.6248      0.00000
     36       0.6298      0.00000
     37       0.6414      0.00000
     38       0.7074      0.00000
     39       0.7563      0.00000
     40       0.7728      0.00000
     41       0.8274      0.00000
     42       0.8413      0.00000
     43       0.8539      0.00000
     44       0.8542      0.00000
     45       0.8554      0.00000
     46       0.9125      0.00000
     47       0.9312      0.00000
     48       1.0245      0.00000
     49       1.0347      0.00000
     50       1.0881      0.00000
     51       1.1303      0.00000
     52       1.1473      0.00000
     53       1.2593      0.00000
     54       1.2619      0.00000
     55       1.2801      0.00000
     56       1.3224      0.00000
     57       1.3419      0.00000
     58       1.3561      0.00000
     59       1.3668      0.00000
     60       1.4028      0.00000
     61       1.4102      0.00000
     62       1.4361      0.00000
     63       1.4562      0.00000
     64       1.4685      0.00000
     65       1.4702      0.00000
     66       1.4936      0.00000
     67       1.5188      0.00000
     68       1.5258      0.00000
     69       1.5437      0.00000
     70       1.5505      0.00000
     71       1.5527      0.00000
     72       1.5630      0.00000
     73       1.5648      0.00000
     74       1.5681      0.00000
     75       1.5722      0.00000
     76       1.6466      0.00000
     77       1.6694      0.00000
     78       1.7143      0.00000
     79       1.7155      0.00000
     80       1.7198      0.00000
     81       1.7252      0.00000
     82       1.7278      0.00000
     83       1.7412      0.00000
     84       1.7622      0.00000
     85       1.7852      0.00000
     86       1.8091      0.00000
     87       1.8158      0.00000
     88       1.8178      0.00000
     89       1.8198      0.00000
     90       1.8247      0.00000
     91       1.8379      0.00000
     92       1.8455      0.00000
     93       1.8540      0.00000
     94       1.8555      0.00000
     95       1.8683      0.00000
     96       1.8688      0.00000
     97       1.8697      0.00000
     98       1.8881      0.00000
     99       1.8906      0.00000
    100       1.9234      0.00000
    101       2.1000      0.00000
    102       2.1564      0.00000
    103       2.2533      0.00000
    104       2.2584      0.00000
    105       2.2597      0.00000
    106       2.2970      0.00000
    107       2.3340      0.00000
    108       2.3447      0.00000
    109       2.3500      0.00000
    110       2.3573      0.00000
    111       2.4149      0.00000
    112       2.4178      0.00000
    113       2.4308      0.00000
    114       2.4527      0.00000
    115       2.4767      0.00000
    116       2.4846      0.00000
    117       2.5603      0.00000
    118       2.5679      0.00000
    119       2.6037      0.00000
    120       2.6077      0.00000
    121       2.6379      0.00000
    122       2.6406      0.00000
    123       2.6571      0.00000
    124       2.6655      0.00000
    125       2.6848      0.00000
    126       2.6947      0.00000
    127       2.7328      0.00000
    128       2.7344      0.00000
    129       2.7483      0.00000
    130       2.7670      0.00000
    131       2.7680      0.00000
    132       2.7684      0.00000
    133       2.7707      0.00000
    134       2.7738      0.00000
    135       2.7741      0.00000
    136       2.7762      0.00000
    137       2.7826      0.00000
    138       2.7945      0.00000
    139       2.7949      0.00000
    140       2.8053      0.00000
    141       2.8089      0.00000
    142       2.8712      0.00000
    143       2.8934      0.00000
    144       2.9059      0.00000
    145       2.9179      0.00000
    146       2.9276      0.00000
    147       2.9352      0.00000
    148       2.9572      0.00000
    149       2.9674      0.00000
    150       2.9998      0.00000
    151       3.0018      0.00000
    152       3.0081      0.00000
    153       3.0221      0.00000
    154       3.0262      0.00000
    155       3.0284      0.00000
    156       3.0384      0.00000
    157       3.0389      0.00000
    158       3.0432      0.00000
    159       3.0436      0.00000
    160       3.0788      0.00000
    161       3.0853      0.00000
    162       3.0902      0.00000
    163       3.0904      0.00000
    164       3.1028      0.00000
    165       3.1049      0.00000
    166       3.2225      0.00000
    167       3.2260      0.00000
    168       3.2621      0.00000
    169       3.2856      0.00000
    170       3.2934      0.00000
    171       3.3057      0.00000
    172       3.3100      0.00000
    173       3.3113      0.00000
    174       3.3137      0.00000
    175       3.3178      0.00000
    176       3.3343      0.00000
    177       3.3354      0.00000
    178       3.3459      0.00000
    179       3.3497      0.00000
    180       3.3584      0.00000
    181       3.3663      0.00000
    182       3.3665      0.00000
    183       3.3673      0.00000
    184       3.3851      0.00000
    185       3.3919      0.00000
    186       3.3948      0.00000
    187       3.3966      0.00000
    188       3.4051      0.00000
    189       3.4101      0.00000
    190       3.5019      0.00000
    191       3.5207      0.00000
    192       3.5555      0.00000
    193       3.5753      0.00000
    194       3.5948      0.00000
    195       3.6066      0.00000
    196       3.6113      0.00000
    197       3.6148      0.00000
    198       3.6267      0.00000
    199       3.6504      0.00000
    200       3.6902      0.00000
    201       3.7320      0.00000
    202       3.7423      0.00000
    203       3.7865      0.00000
    204       3.7894      0.00000
    205       3.7947      0.00000
    206       3.8388      0.00000
    207       3.8393      0.00000
    208       3.8774      0.00000
    209       3.9056      0.00000
    210       3.9239      0.00000
    211       3.9558      0.00000
    212       3.9627      0.00000
    213       3.9674      0.00000
    214       3.9748      0.00000
    215       3.9889      0.00000
    216       3.9931      0.00000
    217       3.9937      0.00000
    218       4.0015      0.00000
    219       4.0139      0.00000
    220       4.0146      0.00000
    221       4.0261      0.00000
    222       4.0553      0.00000
    223       4.0926      0.00000
    224       4.1049      0.00000
    225       4.1108      0.00000
    226       4.1329      0.00000
    227       4.1484      0.00000
    228       4.1583      0.00000
    229       4.1680      0.00000
    230       4.1729      0.00000
    231       4.1749      0.00000
    232       4.2012      0.00000
    233       4.2150      0.00000
    234       4.2323      0.00000
    235       4.2432      0.00000
    236       4.2466      0.00000
    237       4.2489      0.00000
    238       4.2495      0.00000
    239       4.2608      0.00000
    240       4.2640      0.00000
    241       4.2686      0.00000
    242       4.2735      0.00000
    243       4.2776      0.00000
    244       4.2834      0.00000
    245       4.2884      0.00000
    246       4.2987      0.00000
    247       4.3097      0.00000
    248       4.3140      0.00000
    249       4.3165      0.00000
    250       4.3202      0.00000
    251       4.3214      0.00000
    252       4.3245      0.00000
    253       4.3300      0.00000
    254       4.3349      0.00000
    255       4.3355      0.00000
    256       4.3375      0.00000
    257       4.3436      0.00000
    258       4.3449      0.00000
    259       4.3524      0.00000
    260       4.3540      0.00000
    261       4.3599      0.00000
    262       4.3627      0.00000
    263       4.3637      0.00000
    264       4.3643      0.00000
    265       4.3659      0.00000
    266       4.3742      0.00000
    267       4.3764      0.00000
    268       4.3775      0.00000
    269       4.3847      0.00000
    270       4.3853      0.00000
    271       4.4773      0.00000
    272       4.5134      0.00000
    273       4.5290      0.00000
    274       4.5404      0.00000
    275       4.6757      0.00000
    276       4.7502      0.00000
    277       4.7795      0.00000
    278       4.8516      0.00000
    279       4.9432      0.00000
    280       4.9630      0.00000
    281       4.9713      0.00000
    282       4.9833      0.00000
    283       4.9898      0.00000
    284       5.0226      0.00000
    285       5.0334      0.00000
    286       5.0624      0.00000
    287       5.0703      0.00000
    288       5.0824      0.00000
    289       5.0893      0.00000
    290       5.1170      0.00000
    291       5.1282      0.00000
    292       5.1336      0.00000
    293       5.1395      0.00000
    294       5.1480      0.00000
    295       5.1524      0.00000
    296       5.1582      0.00000
    297       5.1599      0.00000
    298       5.1615      0.00000
    299       5.1827      0.00000
    300       5.1985      0.00000
[...]
      4.919562  5.079966  4.999938    -0.409522    0.009681   -0.000104  
      6.802735  6.323093  5.000024     0.206764    0.351700    0.000294  
      4.784569  7.332407  5.000017     0.197079   -0.354119    0.000055  
      7.885030  6.387954  5.000050     0.047170    0.358793   -0.000459  
      4.434586  4.110239  4.999893    -0.369909    0.126168    0.000008  
      4.187242  8.237271  5.000037     0.040059   -0.119529   -0.000264  
      6.262429  5.093635  4.999970     0.151554   -0.258219    0.000025  
      4.124971  6.162611  4.999955     0.158011    0.184324    0.000023  
      6.119457  7.479222  5.000056    -0.228902   -0.030465   -0.000001  

  10 f  =   34.317122 THz   215.620835 2PiTHz 1144.695966 cm-1   141.924148 meV
             X         Y         Z           dx          dy          dz
      4.919562  5.079966  4.999938    -0.004430   -0.407283   -0.000217  
      6.802735  6.323093  5.000024    -0.345650    0.211524   -0.000068  
      4.784569  7.332407  5.000017     0.357424    0.201585   -0.000028  
      7.885030  6.387954  5.000050    -0.114540    0.236287    0.000194  
      4.434586  4.110239  4.999893     0.117112   -0.182025    0.000376  
      4.187242  8.237271  5.000037     0.362500    0.228932    0.000253  
      6.262429  5.093635  4.999970     0.188164    0.097661    0.000022  
      4.124971  6.162611  4.999955    -0.253835    0.104495    0.000050  
      6.119457  7.479222  5.000056    -0.038567   -0.283015    0.000030  

  11 f  =   33.848921 THz   212.679046 2PiTHz 1129.078486 cm-1   139.987828 meV
             X         Y         Z           dx          dy          dz
      4.919562  5.079966  4.999938     0.242016    0.482502   -0.000144  
      6.802735  6.323093  5.000024    -0.541176   -0.032538   -0.000087  
      4.784569  7.332407  5.000017     0.298984   -0.449960   -0.000034  
      7.885030  6.387954  5.000050    -0.166537   -0.009624    0.000092  
      4.434586  4.110239  4.999893     0.075294    0.148058    0.000390  
      4.187242  8.237271  5.000037     0.092745   -0.137981    0.000001  
      6.262429  5.093635  4.999970     0.064205   -0.095207    0.000009  
      4.124971  6.162611  4.999955    -0.115943   -0.007140    0.000059  
      6.119457  7.479222  5.000056     0.051442    0.102223    0.000053  

  12 f  =   32.512426 THz   204.281598 2PiTHz 1084.497801 cm-1   134.460530 meV
             X         Y         Z           dx          dy          dz
      4.919562  5.079966  4.999938    -0.391439    0.195199    0.000420  
      6.802735  6.323093  5.000024     0.026307   -0.437149   -0.000842  
      4.784569  7.332407  5.000017     0.365090    0.242028    0.000527  
      7.885030  6.387954  5.000050    -0.000859    0.015053    0.001577  
      4.434586  4.110239  4.999893     0.013893   -0.007146   -0.000722  
      4.187242  8.237271  5.000037    -0.012450   -0.007872   -0.000933  
      6.262429  5.093635  4.999970     0.313781    0.207409    0.000093  
      4.124971  6.162611  4.999955     0.022270   -0.375610   -0.000182  
      6.119457  7.479222  5.000056    -0.336153    0.168123    0.000066  

  13 f  =   30.349671 THz   190.692606 2PiTHz 1012.356050 cm-1   125.516097 meV
             X         Y         Z           dx          dy          dz
      4.919562  5.079966  4.999938    -0.000828    0.000436   -0.250046  
      6.802735  6.323093  5.000024     0.000013   -0.001230    0.470649  
      4.784569  7.332407  5.000017     0.000734    0.000656   -0.219486  
      7.885030  6.387954  5.000050     0.000016    0.000040   -0.658787  
      4.434586  4.110239  4.999893     0.000386   -0.000204    0.349685  
      4.187242  8.237271  5.000037    -0.000230   -0.000109    0.306920  
      6.262429  5.093635  4.999970     0.000455    0.000602   -0.050349  
      4.124971  6.162611  4.999955     0.000158   -0.000740    0.107169  
      6.119457  7.479222  5.000056    -0.000676    0.000366   -0.057339  

  14 f  =   30.345066 THz   190.663671 2PiTHz 1012.202438 cm-1   125.497051 meV
             X         Y         Z           dx          dy          dz
      4.919562  5.079966  4.999938     0.000065   -0.000063   -0.398480  
      6.802735  6.323093  5.000024     0.000167   -0.000008   -0.017662  
      4.784569  7.332407  5.000017    -0.000265    0.000073    0.416095  
      7.885030  6.387954  5.000050     0.000026   -0.000077    0.024732  
      4.434586  4.110239  4.999893     0.000093   -0.000124    0.557578  
      4.187242  8.237271  5.000037    -0.000163    0.000038   -0.582182  
      6.262429  5.093635  4.999970    -0.000054    0.000037    0.095034  
      4.124971  6.162611  4.999955     0.000038    0.000098   -0.004019  
      6.119457  7.479222  5.000056     0.000247   -0.000091   -0.090979  

  15 f  =   28.895912 THz   181.558371 2PiTHz  963.863883 cm-1   119.503837 meV
             X         Y         Z           dx          dy          dz
      4.919562  5.079966  4.999938    -0.049256   -0.098878    0.000094  
      6.802735  6.323093  5.000024     0.110235    0.006644    0.000215  
      4.784569  7.332407  5.000017    -0.060966    0.092254    0.000063  
      7.885030  6.387954  5.000050     0.032350    0.001929   -0.000302  
      4.434586  4.110239  4.999893    -0.014487   -0.028991   -0.000107  
      4.187242  8.237271  5.000037    -0.017909    0.027060   -0.000138  
      6.262429  5.093635  4.999970     0.311610   -0.472246   -0.000100  
      4.124971  6.162611  4.999955    -0.564714   -0.033768   -0.000060  
      6.119457  7.479222  5.000056     0.253060    0.505986   -0.000033  

  16 f  =   27.412792 THz   172.239652 2PiTHz  914.392319 cm-1   113.370148 meV
             X         Y         Z           dx          dy          dz
      4.919562  5.079966  4.999938    -0.000123    0.000171   -0.348906  
      6.802735  6.323093  5.000024     0.000470    0.000089   -0.347864  
      4.784569  7.332407  5.000017    -0.000214    0.000148   -0.348956  
      7.885030  6.387954  5.000050     0.000147   -0.000010    0.406696  
      4.434586  4.110239  4.999893    -0.000388    0.000146    0.408000  
      4.187242  8.237271  5.000037    -0.000432   -0.000198    0.408000  
      6.262429  5.093635  4.999970     0.000356   -0.000292    0.213703  
      4.124971  6.162611  4.999955    -0.000161   -0.000022    0.214008  
      6.119457  7.479222  5.000056    -0.000036   -0.000028    0.213741  

  17 f  =   22.312351 THz   140.192635 2PiTHz  744.259915 cm-1    92.276427 meV
             X         Y         Z           dx          dy          dz
      4.919562  5.079966  4.999938     0.000190    0.000695    0.252140  
      6.802735  6.323093  5.000024     0.000674   -0.000052    0.252475  
      4.784569  7.332407  5.000017    -0.000324    0.000001    0.252109  
      7.885030  6.387954  5.000050     0.000173    0.000102    0.393286  
      4.434586  4.110239  4.999893    -0.000145    0.000250    0.393648  
      4.187242  8.237271  5.000037    -0.000171   -0.000050    0.393630  
      6.262429  5.093635  4.999970     0.000616   -0.000017   -0.338954  
      4.124971  6.162611  4.999955    -0.000637    0.000236   -0.338863  
      6.119457  7.479222  5.000056    -0.000231   -0.000900   -0.338858  

  18 f  =   20.321967 THz   127.686683 2PiTHz  677.867846 cm-1    84.044864 meV
             X         Y         Z           dx          dy          dz
      4.919562  5.079966  4.999938     0.073824   -0.212831    0.000149  
      6.802735  6.323093  5.000024    -0.439832   -0.054706    0.000166  
      4.784569  7.332407  5.000017    -0.046053    0.310995    0.000305  
      7.885030  6.387954  5.000050    -0.132447    0.006389    0.000454  
      4.434586  4.110239  4.999893    -0.093624   -0.005596    0.000408  
      4.187242  8.237271  5.000037    -0.102681    0.033983    0.000409  
      6.262429  5.093635  4.999970     0.031457   -0.422565   -0.000338  
      4.124971  6.162611  4.999955     0.570759    0.078267   -0.000261  
      6.119457  7.479222  5.000056    -0.132669    0.294696   -0.000297  

  19 f  =   20.321646 THz   127.684669 2PiTHz  677.857154 cm-1    84.043538 meV
             X         Y         Z           dx          dy          dz
      4.919562  5.079966  4.999938     0.241844    0.348484   -0.000147  
      6.802735  6.323093  5.000024     0.083769   -0.165194   -0.000151  
      4.784569  7.332407  5.000017    -0.281964    0.228670   -0.000281  
      7.885030  6.387954  5.000050     0.016831    0.086662   -0.000713  
      4.434586  4.110239  4.999893     0.028791    0.125510   -0.000651  
      4.187242  8.237271  5.000037    -0.010802    0.116484   -0.000690  
      6.262429  5.093635  4.999970     0.389513   -0.281500    0.000342  
      4.124971  6.162611  4.999955    -0.111244    0.257750    0.000411  
      6.119457  7.479222  5.000056    -0.327833   -0.445713    0.000364  

  20 f  =    9.966759 THz    62.622992 2PiTHz  332.455285 cm-1    41.219183 meV
             X         Y         Z           dx          dy          dz
      4.919562  5.079966  4.999938     0.000236   -0.000157    0.085657  
      6.802735  6.323093  5.000024     0.000073    0.000222    0.324855  
      4.784569  7.332407  5.000017    -0.000072   -0.000103   -0.410462  
      7.885030  6.387954  5.000050     0.000014    0.000017    0.301100  
      4.434586  4.110239  4.999893     0.000057   -0.000052    0.079298  
      4.187242  8.237271  5.000037    -0.000026    0.000002   -0.380602  
      6.262429  5.093635  4.999970     0.000110    0.000062   -0.534257  
      4.124971  6.162611  4.999955     0.000128   -0.000115    0.423171  
      6.119457  7.479222  5.000056     0.000077    0.000008    0.111088  

  21 f  =    9.966038 THz    62.618466 2PiTHz  332.431256 cm-1    41.216204 meV
             X         Y         Z           dx          dy          dz
      4.919562  5.079966  4.999938     0.000180   -0.000027   -0.424771  
      6.802735  6.323093  5.000024    -0.000054    0.000198    0.286384  
      4.784569  7.332407  5.000017    -0.000157   -0.000152    0.138464  
      7.885030  6.387954  5.000050    -0.000019    0.000039    0.265438  
      4.434586  4.110239  4.999893     0.000040    0.000030   -0.393740  
      4.187242  8.237271  5.000037    -0.000026   -0.000052    0.128292  
      6.262429  5.093635  4.999970     0.000057    0.000003    0.179742  
      4.124971  6.162611  4.999955    -0.000095   -0.000123    0.372697  
      6.119457  7.479222  5.000056    -0.000112    0.000040   -0.552470  

  22 f  =    0.502943 THz     3.160082 2PiTHz   16.776361 cm-1     2.080003 meV
             X         Y         Z           dx          dy          dz
      4.919562  5.079966  4.999938     0.005101   -0.005097    0.422898  
      6.802735  6.323093  5.000024    -0.008549    0.015583    0.067367  
      4.784569  7.332407  5.000017    -0.019527   -0.006475   -0.449489  
      7.885030  6.387954  5.000050    -0.002694    0.007907    0.032349  
      4.434586  4.110239  4.999893     0.004513   -0.003007    0.219942  
      4.187242  8.237271  5.000037    -0.008460   -0.003715   -0.240501  
      6.262429  5.093635  4.999970     0.005322    0.010391    0.544872  
      4.124971  6.162611  4.999955    -0.007232   -0.014803   -0.046736  
      6.119457  7.479222  5.000056    -0.022782    0.008761   -0.454168  

  23 f  =    0.486893 THz     3.059238 2PiTHz   16.240997 cm-1     2.013626 meV
             X         Y         Z           dx          dy          dz
      4.919562  5.079966  4.999938    -0.017439   -0.006675   -0.324237  
      6.802735  6.323093  5.000024    -0.004721   -0.026112    0.474756  
      4.784569  7.332407  5.000017     0.005747   -0.005281   -0.235025  
      7.885030  6.387954  5.000050    -0.001179   -0.010789    0.257411  
      4.434586  4.110239  4.999893    -0.007891   -0.000474   -0.164467  
      4.187242  8.237271  5.000037     0.004355    0.000277   -0.117441  
      6.262429  5.093635  4.999970    -0.018803   -0.022243    0.205976  
      4.124971  6.162611  4.999955    -0.006807    0.001688   -0.605665  
      6.119457  7.479222  5.000056     0.007928   -0.020639    0.308516  

  24 f  =    0.129556 THz     0.814025 2PiTHz    4.321525 cm-1     0.535801 meV
             X         Y         Z           dx          dy          dz
      4.919562  5.079966  4.999938    -0.474671    0.120142   -0.005993  
      6.802735  6.323093  5.000024    -0.341089   -0.082290   -0.025379  
      4.784569  7.332407  5.000017    -0.232602    0.134682   -0.006741  
      7.885030  6.387954  5.000050    -0.096394   -0.057281   -0.010185  
      4.434586  4.110239  4.999893    -0.166902    0.049647   -0.000053  
      4.187242  8.237271  5.000037    -0.039058    0.057367   -0.000583  
      6.262429  5.093635  4.999970    -0.510853   -0.026084   -0.020810  
      4.124971  6.162611  4.999955    -0.386866    0.221828    0.001034  
      6.119457  7.479222  5.000056    -0.234201   -0.009493   -0.021432  

  25 f/i=    0.009088 THz     0.057099 2PiTHz    0.303129 cm-1     0.037583 meV
             X         Y         Z           dx          dy          dz
      4.919562  5.079966  4.999938     0.063449    0.351590   -0.139004  
      6.802735  6.323093  5.000024     0.062566    0.352904   -0.139273  
      4.784569  7.332407  5.000017     0.061792    0.351452   -0.149876  
      7.885030  6.387954  5.000050     0.018029    0.102030   -0.039396  
      4.434586  4.110239  4.999893     0.018494    0.101334   -0.039294  
      4.187242  8.237271  5.000037     0.017571    0.101231   -0.045007  
      6.262429  5.093635  4.999970     0.068521    0.380616   -0.145882  
      4.124971  6.162611  4.999955     0.067683    0.378991   -0.158018  
      6.119457  7.479222  5.000056     0.066620    0.380537   -0.158379  

  26 f/i=    0.043286 THz     0.271974 2PiTHz    1.443865 cm-1     0.179016 meV
             X         Y         Z           dx          dy          dz
      4.919562  5.079966  4.999938    -0.009225   -0.143004   -0.318165  
      6.802735  6.323093  5.000024    -0.010252   -0.141409   -0.394780  
      4.784569  7.332407  5.000017    -0.011075   -0.143107   -0.354752  
      7.885030  6.387954  5.000050    -0.002972   -0.040476   -0.123299  
      4.434586  4.110239  4.999893    -0.002435   -0.041360   -0.082872  
      4.187242  8.237271  5.000037    -0.003376   -0.041396   -0.102195  
      6.262429  5.093635  4.999970    -0.009945   -0.153180   -0.385514  
      4.124971  6.162611  4.999955    -0.010922   -0.155148   -0.339807  
      6.119457  7.479222  5.000056    -0.012128   -0.153308   -0.427475  

  27 f/i=    0.307435 THz     1.931671 2PiTHz   10.254930 cm-1     1.271449 meV
             X         Y         Z           dx          dy          dz
      4.919562  5.079966  4.999938     0.146944   -0.124349   -0.032461  
      6.802735  6.323093  5.000024    -0.168005    0.352743    0.007258  
      4.784569  7.332407  5.000017    -0.423809   -0.158522    0.008649  
      7.885030  6.387954  5.000050    -0.053209    0.180833    0.005017  
      4.434586  4.110239  4.999893     0.113163   -0.071265   -0.015712  
      4.187242  8.237271  5.000037    -0.188276   -0.089303    0.005846  
      6.262429  5.093635  4.999970     0.154753    0.232932   -0.022116  
      4.124971  6.162611  4.999955    -0.137518   -0.351363   -0.020978  
      6.119457  7.479222  5.000056    -0.497527    0.193789    0.025138  


 ELASTIC MODULI CONTR FROM IONIC RELAXATION (kBar)
 Direction    XX          YY          ZZ          XY          YZ          ZX
 --------------------------------------------------------------------------------
 XX         -44.3871     -7.4275      0.0043     -0.0002     -0.0003     -0.0012
 YY          -7.4275    -44.3793      0.0032     -0.0021     -0.0017     -0.0001
 ZZ           0.0043      0.0032     -0.0001      0.0002     -0.0000      0.0000
 XY          -0.0002     -0.0021      0.0002    -18.4820     -0.0003     -0.0004
 YZ          -0.0003     -0.0017     -0.0000     -0.0003     -0.0000      0.0000
 ZX          -0.0012     -0.0001      0.0000     -0.0004      0.0000     -0.0000
 --------------------------------------------------------------------------------



--------------------------------------------------------------------------------------------------------


  LATTYP: Found a simple cubic cell.
 ALAT       =    22.0000000000
  
  Lattice vectors:
  
 A1 = (  22.0000000000,   0.0000000000,   0.0000000000)
 A2 = (   0.0000000000,  22.0000000000,   0.0000000000)
 A3 = (   0.0000000000,   0.0000000000,  22.0000000000)


Analysis of symmetry for initial positions (statically):
=====================================================================
 Subroutine PRICEL returns:
 Original cell was already a primitive cell.
 

 Routine SETGRP: Setting up the symmetry group for a 
 simple cubic supercell.


 Subroutine GETGRP returns: Found  1 space group operations
 (whereof  1 operations were pure point group operations)
 out of a pool of 48 trial point group operations.


The static configuration has the point symmetry C_1 .


Analysis of symmetry for dynamics (positions and initial velocities):
=====================================================================
 Subroutine PRICEL returns:
 Original cell was already a primitive cell.
 

 Routine SETGRP: Setting up the symmetry group for a 
 simple cubic supercell.


 Subroutine GETGRP returns: Found  1 space group operations
 (whereof  1 operations were pure point group operations)
 out of a pool of 48 trial point group operations.


The dynamic configuration has the point symmetry C_1 .


 Subroutine INISYM returns: Found  1 space group operations
 (whereof  1 operations are pure point group operations),
 and found     1 'primitive' translations


 KPOINTS: auto                                    

Automatic generation of k-mesh.
 Grid dimensions read from file:
 generate k-points for:    1    1    1

 Generating k-lattice:

  Cartesian coordinates                     Fractional coordinates (reciprocal lattice)
     0.045454545  0.000000000  0.000000000     1.000000000  0.000000000  0.000000000
     0.000000000  0.045454545  0.000000000     0.000000000  1.000000000  0.000000000
     0.000000000  0.000000000  0.045454545     0.000000000  0.000000000  1.000000000

  Length of vectors
     0.045454545  0.045454545  0.045454545

  Shift w.r.t. Gamma in fractional coordinates (k-lattice)
     0.000000000  0.000000000  0.000000000

 
 Subroutine IBZKPT returns following result:
 ===========================================
 
 Found      1 irreducible k-points:
 
 Following reciprocal coordinates:
            Coordinates               Weight
  0.000000  0.000000  0.000000      1.000000
 
 Following cartesian coordinates:
            Coordinates               Weight
  0.000000  0.000000  0.000000      1.000000
 
     LOOP+:  cpu time    603.2676: real time    603.7670
    4ORBIT:  cpu time      0.0000: real time      0.0000

 total amount of memory used by VASP MPI-rank0   809315. kBytes
=======================================================================

   base      :      30000. kBytes
   nonl-proj :     128507. kBytes
   fftplans  :      63753. kBytes
   grid      :     568673. kBytes
   one-center:         13. kBytes
   wavefun   :      18369. kBytes

  
  
 General timing and accounting informations for this job:
 ========================================================
  
                  Total CPU time used (sec):    32071.986
                            User time (sec):    29609.965
                          System time (sec):     2462.021
                         Elapsed time (sec):    32144.570
  
                   Maximum memory used (kb):     1527956.
                   Average memory used (kb):          N/A
  
                          Minor page faults:     99248651
                          Major page faults:          527
                 Voluntary context switches:        83722
