 vasp.6.4.1 05Apr23 (build Jun  6 2023 14:46:38) gamma-only                      
 executed on        HPECrayEX_GCC date 2024.08.22  05:13:38
 running  512 mpi-ranks, with    1 threads/rank, on    4 nodes
 distrk:  each k-point on  256 cores,    2 groups
 distr:  one band on NCORE=  32 cores,    8 groups


--------------------------------------------------------------------------------------------------------


 INCAR:
   ALGO = Conjugate
   KPAR = 2
   NCORE = 32
   PREC = Accurate
   EDIFF = 1E-7
   ENCUT = 1000
   ISMEAR = 0
   SIGMA = 0.01
   ISIF = 0
   SYMPREC = 1E-7
   LWAVE = .FALSE.
   LCHARG = .FALSE.

 POTCAR:    PAW_PBE C_h 06Feb2004                 
 POTCAR:    PAW_PBE H_h 06Feb2004                 
 POTCAR:    PAW_PBE N_h 06Feb2004                 
 POTCAR:    PAW_PBE C_h 06Feb2004                 
   VRHFIN =C: s2p2                                                                                  
   LEXCH  = PE                                                                                      
   EATOM  =   147.1560 eV,   10.8157 Ry                                                             
                                                                                                    
   TITEL  = PAW_PBE C_h 06Feb2004                                                                   
   LULTRA =        F    use ultrasoft PP ?                                                          
   IUNSCR =        1    unscreen: 0-lin 1-nonlin 2-no                                               
   RPACOR =    0.800    partial core radius                                                         
   POMASS =   12.011; ZVAL   =    4.000    mass and valenz                                          
   RCORE  =    1.100    outmost cutoff radius                                                       
   RWIGS  =    1.630; RWIGS  =    0.863    wigner-seitz radius (au A)                               
   ENMAX  =  700.000; ENMIN  =  500.000 eV                                                          
   ICORE  =        2    local potential                                                             
   LCOR   =        T    correct aug charges                                                         
   LPAW   =        T    paw PP                                                                      
   EAUG   =  946.768                                                                                
   DEXC   =    0.000                                                                                
   RMAX   =    1.128    core radius for proj-oper                                                   
   RAUG   =    1.300    factor for augmentation sphere                                              
   RDEP   =    1.162    radius for radial grids                                                     
   RDEPT  =    1.088    core radius for aug-charge                                                  
                                                                                                    
   Atomic configuration                                                                             
    4 entries                                                                                       
     n  l   j            E        occ.                                                              
     1  0  0.50      -273.3789   2.0000                                                             
     2  0  0.50       -13.7508   2.0000                                                             
     2  1  0.50        -5.2854   2.0000                                                             
     3  2  1.50        -5.4423   0.0000                                                             
   Description                                                                                      
     l       E           TYP  RCUT    TYP  RCUT                                                     
     0    -13.7508458     23  1.100                                                                 
     0     -8.2022199     23  1.100                                                                 
     1     -5.2854383     23  1.100                                                                 
     1      1.1560700     23  1.100                                                                 
     2     -5.4423304      7  1.100                                                                 
  local pseudopotential read in
  partial core-charges read in
  partial kinetic energy density read in
  atomic valenz-charges read in
  non local Contribution for L=           0  read in
    real space projection operators read in
  non local Contribution for L=           0  read in
    real space projection operators read in
  non local Contribution for L=           1  read in
    real space projection operators read in
  non local Contribution for L=           1  read in
    real space projection operators read in
    PAW grid and wavefunctions read in

   number of l-projection  operators is LMAX  =           4
   number of lm-projection operators is LMMAX =           8

 POTCAR:    PAW_PBE H_h 06Feb2004                 
   VRHFIN =H: ultrasoft test                                                                        
   LEXCH  = PE                                                                                      
   EATOM  =    12.4884 eV,    0.9179 Ry                                                             
                                                                                                    
   TITEL  = PAW_PBE H_h 06Feb2004                                                                   
   LULTRA =        F    use ultrasoft PP ?                                                          
   IUNSCR =        0    unscreen: 0-lin 1-nonlin 2-no                                               
   RPACOR =    0.000    partial core radius                                                         
   POMASS =    1.000; ZVAL   =    1.000    mass and valenz                                          
   RCORE  =    0.800    outmost cutoff radius                                                       
   RWIGS  =    0.700; RWIGS  =    0.370    wigner-seitz radius (au A)                               
   ENMAX  =  700.000; ENMIN  =  350.000 eV                                                          
   RCLOC  =    0.701    cutoff for local pot                                                        
   LCOR   =        T    correct aug charges                                                         
   LPAW   =        T    paw PP                                                                      
   EAUG   = 1000.000                                                                                
   RMAX   =    0.819    core radius for proj-oper                                                   
   RAUG   =    1.000    factor for augmentation sphere                                              
   RDEP   =    0.817    radius for radial grids                                                     
   RDEPT  =    0.817    core radius for aug-charge                                                  
                                                                                                    
   Atomic configuration                                                                             
    2 entries                                                                                       
     n  l   j            E        occ.                                                              
     1  0  0.50        -6.4927   1.0000                                                             
     2  1  0.50        -3.4015   0.0000                                                             
   Description                                                                                      
     l       E           TYP  RCUT    TYP  RCUT                                                     
     0     -6.4927493     23  0.800                                                                 
     0      6.8029130     23  0.800                                                                 
     1     -6.8029130     23  0.800                                                                 
  local pseudopotential read in
  atomic valenz-charges read in
  non local Contribution for L=           0  read in
    real space projection operators read in
  non local Contribution for L=           0  read in
    real space projection operators read in
  non local Contribution for L=           1  read in
    real space projection operators read in
    PAW grid and wavefunctions read in

   number of l-projection  operators is LMAX  =           3
   number of lm-projection operators is LMMAX =           5

 POTCAR:    PAW_PBE N_h 06Feb2004                 
   VRHFIN =N: s2p3                                                                                  
   LEXCH  = PE                                                                                      
   EATOM  =   264.5486 eV,   19.4438 Ry                                                             
                                                                                                    
   TITEL  = PAW_PBE N_h 06Feb2004                                                                   
   LULTRA =        F    use ultrasoft PP ?                                                          
   IUNSCR =        1    unscreen: 0-lin 1-nonlin 2-no                                               
   RPACOR =    0.800    partial core radius                                                         
   POMASS =   14.001; ZVAL   =    5.000    mass and valenz                                          
   RCORE  =    1.100    outmost cutoff radius                                                       
   RWIGS  =    1.480; RWIGS  =    0.783    wigner-seitz radius (au A)                               
   ENMAX  =  700.000; ENMIN  =  500.000 eV                                                          
   ICORE  =        2    local potential                                                             
   LCOR   =        T    correct aug charges                                                         
   LPAW   =        T    paw PP                                                                      
   EAUG   =  904.640                                                                                
   DEXC   =    0.000                                                                                
   RMAX   =    1.127    core radius for proj-oper                                                   
   RAUG   =    1.300    factor for augmentation sphere                                              
   RDEP   =    1.115    radius for radial grids                                                     
   RDEPT  =    1.106    core radius for aug-charge                                                  
                                                                                                    
   Atomic configuration                                                                             
    4 entries                                                                                       
     n  l   j            E        occ.                                                              
     1  0  0.50      -384.7179   2.0000                                                             
     2  0  0.50       -18.5828   2.0000                                                             
     2  1  0.50        -7.0898   3.0000                                                             
     3  2  1.50        -6.8029   0.0000                                                             
   Description                                                                                      
     l       E           TYP  RCUT    TYP  RCUT                                                     
     0    -18.5828117     23  1.100                                                                 
     0    -15.0750597     23  1.100                                                                 
     1     -7.0897851     23  1.100                                                                 
     1     -1.9663412     23  1.100                                                                 
     2     -6.8029130      7  1.100                                                                 
  local pseudopotential read in
  partial core-charges read in
  partial kinetic energy density read in
  kinetic energy density of atom read in
  atomic valenz-charges read in
  non local Contribution for L=           0  read in
    real space projection operators read in
  non local Contribution for L=           0  read in
    real space projection operators read in
  non local Contribution for L=           1  read in
    real space projection operators read in
  non local Contribution for L=           1  read in
    real space projection operators read in
    PAW grid and wavefunctions read in

   number of l-projection  operators is LMAX  =           4
   number of lm-projection operators is LMMAX =           8

  PAW_PBE C_h 06Feb2004                 :
 energy of atom  1       EATOM= -147.1560
 kinetic energy error for atom=    0.0031 (will be added to EATOM!!)
  PAW_PBE H_h 06Feb2004                 :
 energy of atom  2       EATOM=  -12.4884
 kinetic energy error for atom=    0.0006 (will be added to EATOM!!)
  PAW_PBE N_h 06Feb2004                 :
 energy of atom  3       EATOM= -264.5486
 kinetic energy error for atom=    0.0081 (will be added to EATOM!!)


 POSCAR:  C  H  N
  positions in cartesian coordinates
  No initial velocities read in
 exchange correlation table for  LEXCH =        8
   RHO(1)=    0.500       N(1)  =     2000
   RHO(2)=  100.500       N(2)  =     4000

 VTST: version 4.1, (05/19/21)

 CHAIN: initializing optimizer
 
 OPT: Using VASP Dynamics algorithm
 CHAIN: Read ICHAIN            0

 POSCAR:  C  H  N
  positions in cartesian coordinates
  No initial velocities read in



--------------------------------------------------------------------------------------------------------


 ion  position               nearest neighbor table
   1  0.451  0.451  0.500-   5 1.09   8 1.34   7 1.34
   2  0.536  0.507  0.500-   4 1.09   7 1.34   9 1.34
   3  0.445  0.552  0.500-   6 1.09   9 1.34   8 1.34
   4  0.585  0.510  0.500-   2 1.09
   5  0.429  0.406  0.500-   1 1.09
   6  0.417  0.594  0.500-   3 1.09
   7  0.511  0.451  0.500-   2 1.34   1 1.34
   8  0.415  0.500  0.500-   1 1.34   3 1.34
   9  0.505  0.559  0.500-   3 1.34   2 1.34

  LATTYP: Found a simple cubic cell.
 ALAT       =    22.0000000000
  
  Lattice vectors:
  
 A1 = (  22.0000000000,   0.0000000000,   0.0000000000)
 A2 = (   0.0000000000,  22.0000000000,   0.0000000000)
 A3 = (   0.0000000000,   0.0000000000,  22.0000000000)


Analysis of symmetry for initial positions (statically):
=====================================================================
 Subroutine PRICEL returns:
 Original cell was already a primitive cell.
 

 Routine SETGRP: Setting up the symmetry group for a 
 simple cubic supercell.


 Subroutine GETGRP returns: Found  1 space group operations
 (whereof  1 operations were pure point group operations)
 out of a pool of 48 trial point group operations.


The static configuration has the point symmetry C_1 .


Analysis of symmetry for dynamics (positions and initial velocities):
=====================================================================
 Subroutine PRICEL returns:
 Original cell was already a primitive cell.
 

 Routine SETGRP: Setting up the symmetry group for a 
 simple cubic supercell.


 Subroutine GETGRP returns: Found  1 space group operations
 (whereof  1 operations were pure point group operations)
 out of a pool of 48 trial point group operations.


The dynamic configuration has the point symmetry C_1 .


 Subroutine INISYM returns: Found  1 space group operations
 (whereof  1 operations are pure point group operations),
 and found     1 'primitive' translations


----------------------------------------------------------------------------------------

                                     Primitive cell                                     

  volume of cell :   10648.0000

  direct lattice vectors                    reciprocal lattice vectors
    22.000000000  0.000000000  0.000000000     0.045454545  0.000000000  0.000000000
     0.000000000 22.000000000  0.000000000     0.000000000  0.045454545  0.000000000
     0.000000000  0.000000000 22.000000000     0.000000000  0.000000000  0.045454545

  length of vectors
    22.000000000 22.000000000 22.000000000     0.045454545  0.045454545  0.045454545

  position of ions in fractional coordinates (direct lattice)
     0.450674545  0.450522045  0.499994091
     0.535886364  0.506769773  0.499994091
     0.444568182  0.552441136  0.499996818
     0.585370455  0.509748409  0.499991364
     0.428500909  0.406182045  0.499990455
     0.417267727  0.593817955  0.499990909
     0.511492273  0.451056591  0.499994545
     0.414629545  0.499502955  0.499990455
     0.505009545  0.559172500  0.500009545

  ion indices of the primitive-cell ions
   primitive index   ion index
                 1           1
                 2           2
                 3           3
                 4           4
                 5           5
                 6           6
                 7           7
                 8           8
                 9           9

----------------------------------------------------------------------------------------



 KPOINTS: auto                                    

Automatic generation of k-mesh.
 Grid dimensions read from file:
 generate k-points for:    1    1    1

 Generating k-lattice:

  Cartesian coordinates                     Fractional coordinates (reciprocal lattice)
     0.045454545  0.000000000  0.000000000     1.000000000  0.000000000  0.000000000
     0.000000000  0.045454545  0.000000000     0.000000000  1.000000000  0.000000000
     0.000000000  0.000000000  0.045454545     0.000000000  0.000000000  1.000000000

  Length of vectors
     0.045454545  0.045454545  0.045454545

  Shift w.r.t. Gamma in fractional coordinates (k-lattice)
     0.000000000  0.000000000  0.000000000

 
 Subroutine IBZKPT returns following result:
 ===========================================
 
 Found      1 irreducible k-points:
 
 Following reciprocal coordinates:
            Coordinates               Weight
  0.000000  0.000000  0.000000      1.000000
 
 Following cartesian coordinates:
            Coordinates               Weight
  0.000000  0.000000  0.000000      1.000000
 


--------------------------------------------------------------------------------------------------------




 Dimension of arrays:
   k-points           NKPTS =      1   k-points in BZ     NKDIM =      1   number of bands    NBANDS=     24
   number of dos      NEDOS =    301   number of ions     NIONS =      9
   non local maximal  LDIM  =      4   non local SUM 2l+1 LMDIM =      8
   total plane-waves  NPLWV = ******
   max r-space proj   IRMAX =      1   max aug-charges    IRDMAX=   9419
   dimension x,y,z NGX =   240 NGY =  240 NGZ =  240
   dimension x,y,z NGXF=   480 NGYF=  480 NGZF=  480
   support grid    NGXF=   480 NGYF=  480 NGZF=  480
   ions per type =               3   3   3
   NGX,Y,Z   is equivalent  to a cutoff of  18.14, 18.14, 18.14 a.u.
   NGXF,Y,Z  is equivalent  to a cutoff of  36.27, 36.27, 36.27 a.u.

 SYSTEM =  unknown system                          
 POSCAR =   C  H  N                                

 Startparameter for this run:
   NWRITE =      2    write-flag & timer
   PREC   = accura    normal or accurate (medium, high low for compatibility)
   ISTART =      0    job   : 0-new  1-cont  2-samecut
   ICHARG =      2    charge: 1-file 2-atom 10-const
   ISPIN  =      1    spin polarized calculation?
   LNONCOLLINEAR =      F non collinear calculations
   LSORBIT =      F    spin-orbit coupling
   INIWAV =      1    electr: 0-lowe 1-rand  2-diag
   LASPH  =      F    aspherical Exc in radial PAW
 Electronic Relaxation 1
   ENCUT  = 1000.0 eV  73.50 Ry    8.57 a.u.  56.73 56.73 56.73*2*pi/ulx,y,z
   ENINI  = 1000.0     initial cutoff
   ENAUG  = 1000.0 eV  augmentation charge cutoff
   NELM   =     60;   NELMIN=  2; NELMDL= -5     # of ELM steps 
   EDIFF  = 0.1E-06   stopping-criterion for ELM
   LREAL  =      F    real-space projection
   NLSPLINE    = F    spline interpolate recip. space projectors
   LCOMPAT=      F    compatible to vasp.4.4
   GGA_COMPAT  = T    GGA compatible to vasp.4.4-vasp.4.6
   LMAXPAW     = -100 max onsite density
   LMAXMIX     =    2 max onsite mixed and CHGCAR
   VOSKOWN=      0    Vosko Wilk Nusair interpolation
   ROPT   =    0.00000   0.00000   0.00000
 Ionic relaxation
   EDIFFG = 0.1E-05   stopping-criterion for IOM
   NSW    =      0    number of steps for IOM
   NBLOCK =      1;   KBLOCK =      1    inner block; outer block 
   IBRION =     -1    ionic relax: 0-MD 1-quasi-New 2-CG
   NFREE  =      0    steps in history (QN), initial steepest desc. (CG)
   ISIF   =      0    stress and relaxation
   IWAVPR =     10    prediction:  0-non 1-charg 2-wave 3-comb
   ISYM   =      2    0-nonsym 1-usesym 2-fastsym
   LCORR  =      T    Harris-Foulkes like correction to forces

   POTIM  = 0.5000    time-step for ionic-motion
   TEIN   =    0.0    initial temperature
   TEBEG  =    0.0;   TEEND  =   0.0 temperature during run
   SMASS  =  -3.00    Nose mass-parameter (am)
   estimated Nose-frequenzy (Omega)   =  0.10E-29 period in steps = 0.13E+47 mass=  -0.111E-25a.u.
   SCALEE = 1.0000    scale energy and forces
   NPACO  =    256;   APACO  = 10.0  distance and # of slots for P.C.
   PSTRESS=    0.0 pullay stress

  Mass of Ions in am
   POMASS =  12.01  1.00 14.00
  Ionic Valenz
   ZVAL   =   4.00  1.00  5.00
  Atomic Wigner-Seitz radii
   RWIGS  =  -1.00 -1.00 -1.00
  virtual crystal weights 
   VCA    =   1.00  1.00  1.00
   NELECT =      30.0000    total number of electrons
   NUPDOWN=      -1.0000    fix difference up-down

 DOS related values:
   EMIN   =  10.00;   EMAX   =-10.00  energy-range for DOS
   EFERMI =   0.00;   METHOD = LEGACY      
   ISMEAR =     0;   SIGMA  =   0.01  broadening in eV -4-tet -1-fermi 0-gaus

 Electronic relaxation 2 (details)
   IALGO  =     58    algorithm
   LDIAG  =      T    sub-space diagonalisation (order eigenvalues)
   LSUBROT=      F    optimize rotation matrix (better conditioning)
   TURBO    =      0    0=normal 1=particle mesh
   IRESTART =      0    0=no restart 2=restart with 2 vectors
   NREBOOT  =      0    no. of reboots
   NMIN     =      0    reboot dimension
   EREF     =   0.00    reference energy to select bands
   IMIX   =      4    mixing-type and parameters
     AMIX     =   0.40;   BMIX     =  1.00
     AMIX_MAG =   1.60;   BMIX_MAG =  1.00
     AMIN     =   0.10
     WC   =   100.;   INIMIX=   1;  MIXPRE=   1;  MAXMIX= -45

 Intra band minimization:
   WEIMIN = 0.0000     energy-eigenvalue tresh-hold
   EBREAK =  0.10E-08  absolut break condition
   DEPER  =   0.30     relativ break condition  

   TIME   =   0.40     timestep for ELM

  volume/ion in A,a.u.               =    1183.11      7984.03
  Fermi-wavevector in a.u.,A,eV,Ry     =   0.231220  0.436943  0.727406  0.053463
  Thomas-Fermi vector in A             =   1.025338

 Write flags
   LWAVE        =      F    write WAVECAR
   LDOWNSAMPLE  =      F    k-point downsampling of WAVECAR
   LCHARG       =      F    write CHGCAR
   LVTOT        =      F    write LOCPOT, total local potential
   LVHAR        =      F    write LOCPOT, Hartree potential only
   LELF         =      F    write electronic localiz. function (ELF)
   LORBIT       =      0    0 simple, 1 ext, 2 COOP (PROOUT), +10 PAW based schemes


 Dipole corrections
   LMONO  =      F    monopole corrections only (constant potential shift)
   LDIPOL =      F    correct potential (dipole corrections)
   IDIPOL =      0    1-x, 2-y, 3-z, 4-all directions 
   EPSILON=  1.0000000 bulk dielectric constant

 Exchange correlation treatment:
   GGA     =    --    GGA type
   LEXCH   =     8    internal setting for exchange type
   LIBXC   =     F    Libxc                    
   VOSKOWN =     0    Vosko Wilk Nusair interpolation
   LHFCALC =     F    Hartree Fock is set to
   LHFONE  =     F    Hartree Fock one center treatment
   AEXX    =    0.0000 exact exchange contribution

 Linear response parameters
   LEPSILON=     F    determine dielectric tensor
   LRPA    =     F    only Hartree local field effects (RPA)
   LNABLA  =     F    use nabla operator in PAW spheres
   LVEL    =     F    velocity operator in full k-point grid
   CSHIFT  =0.1000    complex shift for real part using Kramers Kronig
   OMEGAMAX=  -1.0    maximum frequency
   DEG_THRESHOLD= 0.2000000E-02 threshold for treating states as degnerate
   RTIME   =   -0.100 relaxation time in fs
  (WPLASMAI=    0.000 imaginary part of plasma frequency in eV, 0.658/RTIME)
   DFIELD  = 0.0000000 0.0000000 0.0000000 field for delta impulse in time

  Optional k-point grid parameters
   LKPOINTS_OPT  =     F    use optional k-point grid
   KPOINTS_OPT_MODE=     1    mode for optional k-point grid

 Orbital magnetization related:
   ORBITALMAG=     F  switch on orbital magnetization
   LCHIMAG   =     F  perturbation theory with respect to B field
   DQ        =  0.001000  dq finite difference perturbation B field
   LLRAUG    =     F  two centre corrections for induced B field
   LBONE     =     F  B-component reconstruction in AE one-centre
   LVGVCALC  =     T  calculate vGv susceptibility
   LVGVAPPL  =     F  apply vGv susceptibility instead of pGv for G=0

 Random number generation:
   RANDOM_GENERATOR = DEFAULT
   PCG_SEED         = not used


--------------------------------------------------------------------------------------------------------


 Static calculation
 charge density and potential will be updated during run
 non-spin polarized calculation
 Conjugate gradient for all bands (Freysoldt, et al. PRB 79, 241103 (2009))
 preconditioned conjugated gradient                                        
 perform sub-space diagonalisation
    before iterative eigenvector-optimisation
 modified Broyden-mixing scheme, WC =      100.0
 initial mixing is a Kerker type mixing with AMIX =  0.4000 and BMIX =      1.0000
 Hartree-type preconditioning will be used
 using additional bands            9
 reciprocal scheme for non local part
 use partial core corrections
 no Harris-corrections to forces 
 use gradient corrections 
 use of overlap-Matrix (Vanderbilt PP)
 Gauss-broadening in eV      SIGMA  =   0.01


--------------------------------------------------------------------------------------------------------


  energy-cutoff  :     1000.00
  volume of cell :    10648.00
      direct lattice vectors                 reciprocal lattice vectors
    22.000000000  0.000000000  0.000000000     0.045454545  0.000000000  0.000000000
     0.000000000 22.000000000  0.000000000     0.000000000  0.045454545  0.000000000
     0.000000000  0.000000000 22.000000000     0.000000000  0.000000000  0.045454545

  length of vectors
    22.000000000 22.000000000 22.000000000     0.045454545  0.045454545  0.045454545



 k-points in units of 2pi/SCALE and weight: auto                                    
   0.00000000  0.00000000  0.00000000       1.000

 k-points in reciprocal lattice and weights: auto                                    
   0.00000000  0.00000000  0.00000000       1.000

 position of ions in fractional coordinates (direct lattice) 
   0.45067455  0.45052205  0.49999409
   0.53588636  0.50676977  0.49999409
   0.44456818  0.55244114  0.49999682
   0.58537045  0.50974841  0.49999136
   0.42850091  0.40618205  0.49999045
   0.41726773  0.59381795  0.49999091
   0.51149227  0.45105659  0.49999455
   0.41462955  0.49950295  0.49999045
   0.50500955  0.55917250  0.50000955

 position of ions in cartesian coordinates  (Angst):
   9.91484000  9.91148500 10.99987000
  11.78950000 11.14893500 10.99987000
   9.78050000 12.15370500 10.99993000
  12.87815000 11.21446500 10.99981000
   9.42702000  8.93600500 10.99979000
   9.17989000 13.06399500 10.99980000
  11.25283000  9.92324500 10.99988000
   9.12185000 10.98906500 10.99979000
  11.11021000 12.30179500 11.00021000



--------------------------------------------------------------------------------------------------------


 use parallel FFT for orbitals z direction half grid
 k-point   1 :   0.0000 0.0000 0.0000  plane waves:  381993

 maximum and minimum number of plane-waves per node :     11948    11928

 maximum number of plane-waves:    381993
 maximum index in each direction: 
   IXMAX=   56   IYMAX=   56   IZMAX=   56
   IXMIN=  -56   IYMIN=  -56   IZMIN=    0


 parallel 3D FFT for wavefunctions:
    minimum data exchange during FFTs selected (reduces bandwidth)
 parallel 3D FFT for charge:
    minimum data exchange during FFTs selected (reduces bandwidth)


 total amount of memory used by VASP MPI-rank0   108656. kBytes
=======================================================================

   base      :      30000. kBytes
   nonl-proj :       4010. kBytes
   fftplans  :      24880. kBytes
   grid      :      48046. kBytes
   one-center:          1. kBytes
   wavefun   :       1719. kBytes

     INWAV:  cpu time      0.0017: real time      0.0019
 Broyden mixing: mesh for mixing (old mesh)
   NGX =113   NGY =113   NGZ =113
  (NGX  =480   NGY  =480   NGZ  =480)
  gives a total of ****** points

 initial charge density was supplied:
 charge density of overlapping atoms calculated
 number of electron      30.0000000 magnetization 
 keeping initial charge density in first step


--------------------------------------------------------------------------------------------------------


 Maximum index for augmentation-charges          493 (set IRDMAX)


--------------------------------------------------------------------------------------------------------


 First call to EWALD:  gamma=   0.081
 Maximum number of real-space cells 3x 3x 3
 Maximum number of reciprocal cells 3x 3x 3

    FEWALD:  cpu time      0.0016: real time      0.0016


--------------------------------------- Ionic step        1  -------------------------------------------




--------------------------------------- Iteration      1(   1)  ---------------------------------------


    POTLOK:  cpu time      0.6112: real time      0.6124
    SETDIJ:  cpu time      0.0092: real time      0.0095
    TRIAL :  cpu time      0.7003: real time      0.7012
    CORREC:  cpu time      0.0016: real time      0.0016
    --------------------------------------------
      LOOP:  cpu time      1.3317: real time      1.3342

 eigenvalue-minimisations  :    64
 total energy-change (2. order) : 0.2758128E+03  (-0.7640947E+03)
 number of electron      30.0000000 magnetization 
 augmentation part       30.0000000 magnetization 

 Free energy of the ion-electron system (eV)
  ---------------------------------------------------
  alpha Z        PSCENC =         0.26191385
  Ewald energy   TEWEN  =      2086.81657480
  -Hartree energ DENC   =     -2998.78842140
  -exchange      EXHF   =         0.00000000
  -V(xc)+E(xc)   XCENC  =        77.58734231
  PAW double counting   =       967.73526564     -948.01650090
  entropy T*S    EENTRO =        -0.00014390
  eigenvalues    EBANDS =      -182.32680857
  atomic energy  EATOM  =      1272.54359529
  ---------------------------------------------------
  free energy    TOTEN  =       275.81281712 eV

  energy without entropy =      275.81296103  energy(sigma->0) =      275.81288908


--------------------------------------------------------------------------------------------------------




--------------------------------------- Iteration      1(   2)  ---------------------------------------


    TRIAL :  cpu time      0.7303: real time      0.7307
    CORREC:  cpu time      0.0003: real time      0.0003
    --------------------------------------------
      LOOP:  cpu time      0.7449: real time      0.7632

 eigenvalue-minimisations  :    72
 total energy-change (2. order) :-0.1338335E+03  (-0.1299077E+03)
 number of electron      30.0000000 magnetization 
 augmentation part       30.0000000 magnetization 

 Free energy of the ion-electron system (eV)
  ---------------------------------------------------
  alpha Z        PSCENC =         0.26191385
  Ewald energy   TEWEN  =      2086.81657480
  -Hartree energ DENC   =     -2998.78842140
  -exchange      EXHF   =         0.00000000
  -V(xc)+E(xc)   XCENC  =        77.58734231
  PAW double counting   =       967.73526564     -948.01650090
  entropy T*S    EENTRO =        -0.00000000
  eigenvalues    EBANDS =      -316.16040873
  atomic energy  EATOM  =      1272.54359529
  ---------------------------------------------------
  free energy    TOTEN  =       141.97936087 eV

  energy without entropy =      141.97936087  energy(sigma->0) =      141.97936087


--------------------------------------------------------------------------------------------------------




--------------------------------------- Iteration      1(   3)  ---------------------------------------


    TRIAL :  cpu time      0.7951: real time      0.7952
    CORREC:  cpu time      0.0001: real time      0.0001
    --------------------------------------------
      LOOP:  cpu time      0.8084: real time      0.8260

 eigenvalue-minimisations  :    80
 total energy-change (2. order) :-0.1554174E+03  (-0.1521052E+03)
 number of electron      30.0000000 magnetization 
 augmentation part       30.0000000 magnetization 

 Free energy of the ion-electron system (eV)
  ---------------------------------------------------
  alpha Z        PSCENC =         0.26191385
  Ewald energy   TEWEN  =      2086.81657480
  -Hartree energ DENC   =     -2998.78842140
  -exchange      EXHF   =         0.00000000
  -V(xc)+E(xc)   XCENC  =        77.58734231
  PAW double counting   =       967.73526564     -948.01650090
  entropy T*S    EENTRO =        -0.00000000
  eigenvalues    EBANDS =      -471.57784964
  atomic energy  EATOM  =      1272.54359529
  ---------------------------------------------------
  free energy    TOTEN  =       -13.43808004 eV

  energy without entropy =      -13.43808004  energy(sigma->0) =      -13.43808004


--------------------------------------------------------------------------------------------------------




--------------------------------------- Iteration      1(   4)  ---------------------------------------


    TRIAL :  cpu time      0.6691: real time      0.6696
    CORREC:  cpu time      0.0001: real time      0.0001
    --------------------------------------------
      LOOP:  cpu time      0.6855: real time      0.7003

 eigenvalue-minimisations  :    64
 total energy-change (2. order) :-0.5085917E+02  (-0.5070205E+02)
 number of electron      30.0000000 magnetization 
 augmentation part       30.0000000 magnetization 

 Free energy of the ion-electron system (eV)
  ---------------------------------------------------
  alpha Z        PSCENC =         0.26191385
  Ewald energy   TEWEN  =      2086.81657480
  -Hartree energ DENC   =     -2998.78842140
  -exchange      EXHF   =         0.00000000
  -V(xc)+E(xc)   XCENC  =        77.58734231
  PAW double counting   =       967.73526564     -948.01650090
  entropy T*S    EENTRO =        -0.00000000
  eigenvalues    EBANDS =      -522.43701570
  atomic energy  EATOM  =      1272.54359529
  ---------------------------------------------------
  free energy    TOTEN  =       -64.29724610 eV

  energy without entropy =      -64.29724610  energy(sigma->0) =      -64.29724610


--------------------------------------------------------------------------------------------------------




--------------------------------------- Iteration      1(   5)  ---------------------------------------


    TRIAL :  cpu time      0.6086: real time      0.6090
    CORREC:  cpu time      0.0002: real time      0.0002
    CHARGE:  cpu time      0.2078: real time      0.2096
    --------------------------------------------
      LOOP:  cpu time      0.8285: real time      0.8478

 eigenvalue-minimisations  :    56
 total energy-change (2. order) :-0.2502315E+01  (-0.2470512E+01)
 number of electron      30.0000000 magnetization 
 augmentation part       -0.1013962 magnetization 

 Free energy of the ion-electron system (eV)
  ---------------------------------------------------
  alpha Z        PSCENC =         0.26191385
  Ewald energy   TEWEN  =      2086.81657480
  -Hartree energ DENC   =     -2998.78842140
  -exchange      EXHF   =         0.00000000
  -V(xc)+E(xc)   XCENC  =        77.58734231
  PAW double counting   =       967.73526564     -948.01650090
  entropy T*S    EENTRO =        -0.00000000
  eigenvalues    EBANDS =      -524.93933091
  atomic energy  EATOM  =      1272.54359529
  ---------------------------------------------------
  free energy    TOTEN  =       -66.79956131 eV

  energy without entropy =      -66.79956131  energy(sigma->0) =      -66.79956131


--------------------------------------------------------------------------------------------------------




--------------------------------------- Iteration      1(   6)  ---------------------------------------


    POTLOK:  cpu time      0.6157: real time      0.6162
    SETDIJ:  cpu time      0.0022: real time      0.0022
    TRIAL :  cpu time      0.3930: real time      0.3938
    CORREC:  cpu time      0.9043: real time      0.9055
    CHARGE:  cpu time      0.1697: real time      0.1698
    --------------------------------------------
      LOOP:  cpu time      2.1014: real time      2.1175

 eigenvalue-minimisations  :     0
 total energy-change (2. order) : 0.8502134E+01  (-0.3191006E+01)
 number of electron      30.0000000 magnetization 
 augmentation part       -0.1085148 magnetization 

 Free energy of the ion-electron system (eV)
  ---------------------------------------------------
  alpha Z        PSCENC =         0.26191385
  Ewald energy   TEWEN  =      2086.81657480
  -Hartree energ DENC   =     -3205.73441262
  -exchange      EXHF   =         0.00000000
  -V(xc)+E(xc)   XCENC  =        86.72149354
  PAW double counting   =     10244.25242273   -10225.71663725
  entropy T*S    EENTRO =        -0.00000000
  eigenvalues    EBANDS =      -317.44237740
  atomic energy  EATOM  =      1272.54359529
  ---------------------------------------------------
  free energy    TOTEN  =       -58.29742706 eV

  energy without entropy =      -58.29742706  energy(sigma->0) =      -58.29742706


--------------------------------------------------------------------------------------------------------




--------------------------------------- Iteration      1(   7)  ---------------------------------------


    POTLOK:  cpu time      0.6158: real time      0.6162
    SETDIJ:  cpu time      0.0011: real time      0.0011
    TRIAL :  cpu time      0.3802: real time      0.3803
    CORREC:  cpu time      0.8969: real time      0.8976
    CHARGE:  cpu time      0.1698: real time      0.1699
    --------------------------------------------
      LOOP:  cpu time      2.0947: real time      2.0962

 eigenvalue-minimisations  :     0
 total energy-change (2. order) :-0.3218512E+01  (-0.3463419E+00)
 number of electron      30.0000000 magnetization 
 augmentation part       -0.1226150 magnetization 

 Free energy of the ion-electron system (eV)
  ---------------------------------------------------
  alpha Z        PSCENC =         0.26191385
  Ewald energy   TEWEN  =      2086.81657480
  -Hartree energ DENC   =     -3113.48030196
  -exchange      EXHF   =         0.00000000
  -V(xc)+E(xc)   XCENC  =        83.07287989
  PAW double counting   =     12497.36595155   -12478.35543415
  entropy T*S    EENTRO =        -0.00000000
  eigenvalues    EBANDS =      -409.74111787
  atomic energy  EATOM  =      1272.54359529
  ---------------------------------------------------
  free energy    TOTEN  =       -61.51593860 eV

  energy without entropy =      -61.51593860  energy(sigma->0) =      -61.51593860


--------------------------------------------------------------------------------------------------------




--------------------------------------- Iteration      1(   8)  ---------------------------------------


    POTLOK:  cpu time      0.6162: real time      0.6167
    SETDIJ:  cpu time      0.0007: real time      0.0007
    TRIAL :  cpu time      0.3801: real time      0.3802
    CORREC:  cpu time      0.8986: real time      0.8991
    CHARGE:  cpu time      0.1713: real time      0.1714
    --------------------------------------------
      LOOP:  cpu time      2.0845: real time      2.1001

 eigenvalue-minimisations  :     0
 total energy-change (2. order) :-0.3469280E+00  (-0.1109762E+00)
 number of electron      30.0000000 magnetization 
 augmentation part       -0.1260913 magnetization 

 Free energy of the ion-electron system (eV)
  ---------------------------------------------------
  alpha Z        PSCENC =         0.26191385
  Ewald energy   TEWEN  =      2086.81657480
  -Hartree energ DENC   =     -3114.35683454
  -exchange      EXHF   =         0.00000000
  -V(xc)+E(xc)   XCENC  =        82.99050562
  PAW double counting   =     13180.51747332   -13161.43280726
  entropy T*S    EENTRO =        -0.00000000
  eigenvalues    EBANDS =      -409.20328764
  atomic energy  EATOM  =      1272.54359529
  ---------------------------------------------------
  free energy    TOTEN  =       -61.86286655 eV

  energy without entropy =      -61.86286655  energy(sigma->0) =      -61.86286655


--------------------------------------------------------------------------------------------------------




--------------------------------------- Iteration      1(   9)  ---------------------------------------


    POTLOK:  cpu time      0.6155: real time      0.6158
    SETDIJ:  cpu time      0.0008: real time      0.0008
    TRIAL :  cpu time      0.3789: real time      0.3789
    CORREC:  cpu time      0.8959: real time      0.8964
    CHARGE:  cpu time      0.1692: real time      0.1693
    --------------------------------------------
      LOOP:  cpu time      2.0743: real time      2.0916

 eigenvalue-minimisations  :     0
 total energy-change (2. order) :-0.1109877E+00  (-0.4890133E-01)
 number of electron      30.0000000 magnetization 
 augmentation part       -0.1273480 magnetization 

 Free energy of the ion-electron system (eV)
  ---------------------------------------------------
  alpha Z        PSCENC =         0.26191385
  Ewald energy   TEWEN  =      2086.81657480
  -Hartree energ DENC   =     -3115.02866569
  -exchange      EXHF   =         0.00000000
  -V(xc)+E(xc)   XCENC  =        82.97305808
  PAW double counting   =     13349.08242568   -13329.97124833
  entropy T*S    EENTRO =        -0.00000000
  eigenvalues    EBANDS =      -408.65150793
  atomic energy  EATOM  =      1272.54359529
  ---------------------------------------------------
  free energy    TOTEN  =       -61.97385425 eV

  energy without entropy =      -61.97385425  energy(sigma->0) =      -61.97385425


--------------------------------------------------------------------------------------------------------




--------------------------------------- Iteration      1(  10)  ---------------------------------------


    POTLOK:  cpu time      0.6150: real time      0.6153
    SETDIJ:  cpu time      0.0028: real time      0.0028
    TRIAL :  cpu time      0.3787: real time      0.3787
    CORREC:  cpu time      0.8962: real time      0.8968
    CHARGE:  cpu time      0.1699: real time      0.1700
    --------------------------------------------
      LOOP:  cpu time      2.0920: real time      2.0932

 eigenvalue-minimisations  :     0
 total energy-change (2. order) :-0.4870563E-01  (-0.1798776E-01)
 number of electron      30.0000000 magnetization 
 augmentation part       -0.1275185 magnetization 

 Free energy of the ion-electron system (eV)
  ---------------------------------------------------
  alpha Z        PSCENC =         0.26191385
  Ewald energy   TEWEN  =      2086.81657480
  -Hartree energ DENC   =     -3112.48726972
  -exchange      EXHF   =         0.00000000
  -V(xc)+E(xc)   XCENC  =        82.90731736
  PAW double counting   =     13247.98308329   -13228.86309689
  entropy T*S    EENTRO =        -0.00000000
  eigenvalues    EBANDS =      -411.18467786
  atomic energy  EATOM  =      1272.54359529
  ---------------------------------------------------
  free energy    TOTEN  =       -62.02255988 eV

  energy without entropy =      -62.02255988  energy(sigma->0) =      -62.02255988


--------------------------------------------------------------------------------------------------------




--------------------------------------- Iteration      1(  11)  ---------------------------------------


    POTLOK:  cpu time      0.6124: real time      0.6129
    SETDIJ:  cpu time      0.0015: real time      0.0015
    TRIAL :  cpu time      0.3797: real time      0.3798
    CORREC:  cpu time      0.8862: real time      0.8867
    CHARGE:  cpu time      0.1695: real time      0.1696
    --------------------------------------------
      LOOP:  cpu time      2.0628: real time      2.0818

 eigenvalue-minimisations  :     0
 total energy-change (2. order) :-0.1790415E-01  (-0.5618725E-02)
 number of electron      30.0000000 magnetization 
 augmentation part       -0.1270571 magnetization 

 Free energy of the ion-electron system (eV)
  ---------------------------------------------------
  alpha Z        PSCENC =         0.26191385
  Ewald energy   TEWEN  =      2086.81657480
  -Hartree energ DENC   =     -3111.69702811
  -exchange      EXHF   =         0.00000000
  -V(xc)+E(xc)   XCENC  =        82.89936041
  PAW double counting   =     13088.02625514   -13068.91277468
  entropy T*S    EENTRO =        -0.00000000
  eigenvalues    EBANDS =      -411.97836073
  atomic energy  EATOM  =      1272.54359529
  ---------------------------------------------------
  free energy    TOTEN  =       -62.04046403 eV

  energy without entropy =      -62.04046403  energy(sigma->0) =      -62.04046403


--------------------------------------------------------------------------------------------------------




--------------------------------------- Iteration      1(  12)  ---------------------------------------


    POTLOK:  cpu time      0.6082: real time      0.6087
    SETDIJ:  cpu time      0.0017: real time      0.0018
    TRIAL :  cpu time      0.3817: real time      0.3818
    CORREC:  cpu time      0.8800: real time      0.8807
    CHARGE:  cpu time      0.1696: real time      0.1700
    --------------------------------------------
      LOOP:  cpu time      2.0591: real time      2.0735

 eigenvalue-minimisations  :     0
 total energy-change (2. order) :-0.5604904E-02  (-0.1677174E-02)
 number of electron      30.0000000 magnetization 
 augmentation part       -0.1268521 magnetization 

 Free energy of the ion-electron system (eV)
  ---------------------------------------------------
  alpha Z        PSCENC =         0.26191385
  Ewald energy   TEWEN  =      2086.81657480
  -Hartree energ DENC   =     -3111.61919020
  -exchange      EXHF   =         0.00000000
  -V(xc)+E(xc)   XCENC  =        82.89493906
  PAW double counting   =     13018.42443690   -12999.31656623
  entropy T*S    EENTRO =        -0.00000000
  eigenvalues    EBANDS =      -412.05177239
  atomic energy  EATOM  =      1272.54359529
  ---------------------------------------------------
  free energy    TOTEN  =       -62.04606894 eV

  energy without entropy =      -62.04606894  energy(sigma->0) =      -62.04606894


--------------------------------------------------------------------------------------------------------




--------------------------------------- Iteration      1(  13)  ---------------------------------------


    POTLOK:  cpu time      0.6039: real time      0.6040
    SETDIJ:  cpu time      0.0020: real time      0.0020
    TRIAL :  cpu time      0.3819: real time      0.3824
    CORREC:  cpu time      0.8776: real time      0.8779
    CHARGE:  cpu time      0.1688: real time      0.1691
    --------------------------------------------
      LOOP:  cpu time      2.0484: real time      2.0643

 eigenvalue-minimisations  :     0
 total energy-change (2. order) :-0.1675914E-02  (-0.4809629E-03)
 number of electron      30.0000000 magnetization 
 augmentation part       -0.1268592 magnetization 

 Free energy of the ion-electron system (eV)
  ---------------------------------------------------
  alpha Z        PSCENC =         0.26191385
  Ewald energy   TEWEN  =      2086.81657480
  -Hartree energ DENC   =     -3111.28916078
  -exchange      EXHF   =         0.00000000
  -V(xc)+E(xc)   XCENC  =        82.87982263
  PAW double counting   =     13017.02627457   -12997.91947017
  entropy T*S    EENTRO =        -0.00000000
  eigenvalues    EBANDS =      -412.36729504
  atomic energy  EATOM  =      1272.54359529
  ---------------------------------------------------
  free energy    TOTEN  =       -62.04774485 eV

  energy without entropy =      -62.04774485  energy(sigma->0) =      -62.04774485


--------------------------------------------------------------------------------------------------------




--------------------------------------- Iteration      1(  14)  ---------------------------------------


    POTLOK:  cpu time      0.5970: real time      0.5971
    SETDIJ:  cpu time      0.0008: real time      0.0008
    TRIAL :  cpu time      0.3788: real time      0.3792
    CORREC:  cpu time      0.8742: real time      0.8744
    CHARGE:  cpu time      0.1702: real time      0.1707
    --------------------------------------------
      LOOP:  cpu time      2.0432: real time      2.0523

 eigenvalue-minimisations  :     0
 total energy-change (2. order) :-0.4806345E-03  (-0.1577752E-03)
 number of electron      30.0000000 magnetization 
 augmentation part       -0.1268693 magnetization 

 Free energy of the ion-electron system (eV)
  ---------------------------------------------------
  alpha Z        PSCENC =         0.26191385
  Ewald energy   TEWEN  =      2086.81657480
  -Hartree energ DENC   =     -3111.27795119
  -exchange      EXHF   =         0.00000000
  -V(xc)+E(xc)   XCENC  =        82.87867351
  PAW double counting   =     13030.25007857   -13011.14362774
  entropy T*S    EENTRO =        -0.00000000
  eigenvalues    EBANDS =      -412.37748257
  atomic energy  EATOM  =      1272.54359529
  ---------------------------------------------------
  free energy    TOTEN  =       -62.04822548 eV

  energy without entropy =      -62.04822548  energy(sigma->0) =      -62.04822548


--------------------------------------------------------------------------------------------------------




--------------------------------------- Iteration      1(  15)  ---------------------------------------


    POTLOK:  cpu time      0.5918: real time      0.5919
    SETDIJ:  cpu time      0.0009: real time      0.0009
    TRIAL :  cpu time      0.3813: real time      0.3817
    CORREC:  cpu time      0.8674: real time      0.8683
    CHARGE:  cpu time      0.1708: real time      0.1709
    --------------------------------------------
      LOOP:  cpu time      2.0416: real time      2.0433

 eigenvalue-minimisations  :     0
 total energy-change (2. order) :-0.1576112E-03  (-0.6288724E-04)
 number of electron      30.0000000 magnetization 
 augmentation part       -0.1268527 magnetization 

 Free energy of the ion-electron system (eV)
  ---------------------------------------------------
  alpha Z        PSCENC =         0.26191385
  Ewald energy   TEWEN  =      2086.81657480
  -Hartree energ DENC   =     -3111.35407344
  -exchange      EXHF   =         0.00000000
  -V(xc)+E(xc)   XCENC  =        82.88071277
  PAW double counting   =     13038.53812754   -13019.43175924
  entropy T*S    EENTRO =        -0.00000000
  eigenvalues    EBANDS =      -412.30347466
  atomic energy  EATOM  =      1272.54359529
  ---------------------------------------------------
  free energy    TOTEN  =       -62.04838310 eV

  energy without entropy =      -62.04838310  energy(sigma->0) =      -62.04838310


--------------------------------------------------------------------------------------------------------




--------------------------------------- Iteration      1(  16)  ---------------------------------------


    POTLOK:  cpu time      0.5874: real time      0.5876
    SETDIJ:  cpu time      0.0007: real time      0.0007
    TRIAL :  cpu time      0.3794: real time      0.3798
    CORREC:  cpu time      0.8662: real time      0.8671
    CHARGE:  cpu time      0.1692: real time      0.1693
    --------------------------------------------
      LOOP:  cpu time      2.0175: real time      2.0342

 eigenvalue-minimisations  :     0
 total energy-change (2. order) :-0.6305652E-04  (-0.2482682E-04)
 number of electron      30.0000000 magnetization 
 augmentation part       -0.1268208 magnetization 

 Free energy of the ion-electron system (eV)
  ---------------------------------------------------
  alpha Z        PSCENC =         0.26191385
  Ewald energy   TEWEN  =      2086.81657480
  -Hartree energ DENC   =     -3111.34622561
  -exchange      EXHF   =         0.00000000
  -V(xc)+E(xc)   XCENC  =        82.87999927
  PAW double counting   =     13039.37039800   -13020.26385734
  entropy T*S    EENTRO =        -0.00000000
  eigenvalues    EBANDS =      -412.31084441
  atomic energy  EATOM  =      1272.54359529
  ---------------------------------------------------
  free energy    TOTEN  =       -62.04844615 eV

  energy without entropy =      -62.04844615  energy(sigma->0) =      -62.04844615


--------------------------------------------------------------------------------------------------------




--------------------------------------- Iteration      1(  17)  ---------------------------------------


    POTLOK:  cpu time      0.5842: real time      0.5843
    SETDIJ:  cpu time      0.0013: real time      0.0013
    TRIAL :  cpu time      0.3798: real time      0.3803
    CORREC:  cpu time      0.8635: real time      0.8642
    CHARGE:  cpu time      0.1686: real time      0.1687
    --------------------------------------------
      LOOP:  cpu time      2.0101: real time      2.0282

 eigenvalue-minimisations  :     0
 total energy-change (2. order) :-0.2492241E-04  (-0.8071005E-05)
 number of electron      30.0000000 magnetization 
 augmentation part       -0.1268050 magnetization 

 Free energy of the ion-electron system (eV)
  ---------------------------------------------------
  alpha Z        PSCENC =         0.26191385
  Ewald energy   TEWEN  =      2086.81657480
  -Hartree energ DENC   =     -3111.38713459
  -exchange      EXHF   =         0.00000000
  -V(xc)+E(xc)   XCENC  =        82.88142931
  PAW double counting   =     13035.97201573   -13016.86559075
  entropy T*S    EENTRO =        -0.00000000
  eigenvalues    EBANDS =      -412.27127470
  atomic energy  EATOM  =      1272.54359529
  ---------------------------------------------------
  free energy    TOTEN  =       -62.04847107 eV

  energy without entropy =      -62.04847107  energy(sigma->0) =      -62.04847107


--------------------------------------------------------------------------------------------------------




--------------------------------------- Iteration      1(  18)  ---------------------------------------


    POTLOK:  cpu time      0.5856: real time      0.5858
    SETDIJ:  cpu time      0.0008: real time      0.0008
    TRIAL :  cpu time      0.3803: real time      0.3807
    CORREC:  cpu time      0.8631: real time      0.8636
    CHARGE:  cpu time      0.1686: real time      0.1687
    --------------------------------------------
      LOOP:  cpu time      2.0296: real time      2.0310

 eigenvalue-minimisations  :     0
 total energy-change (2. order) :-0.8127337E-05  (-0.2374801E-05)
 number of electron      30.0000000 magnetization 
 augmentation part       -0.1267986 magnetization 

 Free energy of the ion-electron system (eV)
  ---------------------------------------------------
  alpha Z        PSCENC =         0.26191385
  Ewald energy   TEWEN  =      2086.81657480
  -Hartree energ DENC   =     -3111.38839772
  -exchange      EXHF   =         0.00000000
  -V(xc)+E(xc)   XCENC  =        82.88151991
  PAW double counting   =     13034.36884179   -13015.26240376
  entropy T*S    EENTRO =        -0.00000000
  eigenvalues    EBANDS =      -412.27012336
  atomic energy  EATOM  =      1272.54359529
  ---------------------------------------------------
  free energy    TOTEN  =       -62.04847920 eV

  energy without entropy =      -62.04847920  energy(sigma->0) =      -62.04847920


--------------------------------------------------------------------------------------------------------




--------------------------------------- Iteration      1(  19)  ---------------------------------------


    POTLOK:  cpu time      0.5841: real time      0.5842
    SETDIJ:  cpu time      0.0006: real time      0.0006
    TRIAL :  cpu time      0.3786: real time      0.3795
    CORREC:  cpu time      0.8693: real time      0.8699
    CHARGE:  cpu time      0.1702: real time      0.1703
    --------------------------------------------
      LOOP:  cpu time      2.0212: real time      2.0414

 eigenvalue-minimisations  :     0
 total energy-change (2. order) :-0.2390561E-05  (-0.7119156E-06)
 number of electron      30.0000000 magnetization 
 augmentation part       -0.1267949 magnetization 

 Free energy of the ion-electron system (eV)
  ---------------------------------------------------
  alpha Z        PSCENC =         0.26191385
  Ewald energy   TEWEN  =      2086.81657480
  -Hartree energ DENC   =     -3111.38886960
  -exchange      EXHF   =         0.00000000
  -V(xc)+E(xc)   XCENC  =        82.88158518
  PAW double counting   =     13034.55074937   -13015.44429407
  entropy T*S    EENTRO =        -0.00000000
  eigenvalues    EBANDS =      -412.26973640
  atomic energy  EATOM  =      1272.54359529
  ---------------------------------------------------
  free energy    TOTEN  =       -62.04848159 eV

  energy without entropy =      -62.04848159  energy(sigma->0) =      -62.04848159


--------------------------------------------------------------------------------------------------------




--------------------------------------- Iteration      1(  20)  ---------------------------------------


    POTLOK:  cpu time      0.5814: real time      0.5815
    SETDIJ:  cpu time      0.0030: real time      0.0030
    TRIAL :  cpu time      0.3782: real time      0.3786
    CORREC:  cpu time      0.8713: real time      0.8722
    CHARGE:  cpu time      0.1702: real time      0.1704
    --------------------------------------------
      LOOP:  cpu time      2.0208: real time      2.0373

 eigenvalue-minimisations  :     0
 total energy-change (2. order) :-0.7104063E-06  (-0.2156032E-06)
 number of electron      30.0000000 magnetization 
 augmentation part       -0.1267926 magnetization 

 Free energy of the ion-electron system (eV)
  ---------------------------------------------------
  alpha Z        PSCENC =         0.26191385
  Ewald energy   TEWEN  =      2086.81657480
  -Hartree energ DENC   =     -3111.39252482
  -exchange      EXHF   =         0.00000000
  -V(xc)+E(xc)   XCENC  =        82.88176020
  PAW double counting   =     13035.12039457   -13016.01394380
  entropy T*S    EENTRO =        -0.00000000
  eigenvalues    EBANDS =      -412.26625239
  atomic energy  EATOM  =      1272.54359529
  ---------------------------------------------------
  free energy    TOTEN  =       -62.04848230 eV

  energy without entropy =      -62.04848230  energy(sigma->0) =      -62.04848230


--------------------------------------------------------------------------------------------------------




--------------------------------------- Iteration      1(  21)  ---------------------------------------


    POTLOK:  cpu time      0.5834: real time      0.5835
    SETDIJ:  cpu time      0.0012: real time      0.0012
    TRIAL :  cpu time      0.3792: real time      0.3800
    CORREC:  cpu time      0.8642: real time      0.8647
    CHARGE:  cpu time      0.1696: real time      0.1697
    --------------------------------------------
      LOOP:  cpu time      2.0267: real time      2.0287

 eigenvalue-minimisations  :     0
 total energy-change (2. order) :-0.2202432E-06  (-0.8073982E-07)
 number of electron      30.0000000 magnetization 
 augmentation part       -0.1267898 magnetization 

 Free energy of the ion-electron system (eV)
  ---------------------------------------------------
  alpha Z        PSCENC =         0.26191385
  Ewald energy   TEWEN  =      2086.81657480
  -Hartree energ DENC   =     -3111.38869474
  -exchange      EXHF   =         0.00000000
  -V(xc)+E(xc)   XCENC  =        82.88163527
  PAW double counting   =     13035.44220147   -13016.33574004
  entropy T*S    EENTRO =        -0.00000000
  eigenvalues    EBANDS =      -412.26996843
  atomic energy  EATOM  =      1272.54359529
  ---------------------------------------------------
  free energy    TOTEN  =       -62.04848252 eV

  energy without entropy =      -62.04848252  energy(sigma->0) =      -62.04848252


--------------------------------------------------------------------------------------------------------




--------------------------------------- Iteration      1(  22)  ---------------------------------------


    POTLOK:  cpu time      0.5827: real time      0.5833
    SETDIJ:  cpu time      0.0006: real time      0.0006
    TRIAL :  cpu time      0.3802: real time      0.3803
    CORREC:  cpu time      0.8651: real time      0.8657
    EDDIAG:  cpu time      0.1727: real time      0.1728
    CHARGE:  cpu time      0.1692: real time      0.1693
    --------------------------------------------
      LOOP:  cpu time      2.1854: real time      2.2032

 eigenvalue-minimisations  :     0
 total energy-change (2. order) :-0.8115785E-07  (-0.2888040E-07)
 number of electron      30.0000000 magnetization 
 augmentation part       -0.1267883 magnetization 

 Free energy of the ion-electron system (eV)
  ---------------------------------------------------
  alpha Z        PSCENC =         0.26191385
  Ewald energy   TEWEN  =      2086.81657480
  -Hartree energ DENC   =     -3111.38962606
  -exchange      EXHF   =         0.00000000
  -V(xc)+E(xc)   XCENC  =        82.88166243
  PAW double counting   =     13035.45770335   -13016.35125459
  entropy T*S    EENTRO =        -0.00000000
  eigenvalues    EBANDS =      -412.26905166
  atomic energy  EATOM  =      1272.54359529
  ---------------------------------------------------
  free energy    TOTEN  =       -62.04848260 eV

  energy without entropy =      -62.04848260  energy(sigma->0) =      -62.04848260


--------------------------------------------------------------------------------------------------------


  average scaling for gradient   1.0068


 average (electrostatic) potential at core
  the test charge radii are     0.5770  0.4325  0.5902
  (the norm of the test charge is              1.0000)
       1 -88.4748       2 -88.4747       3 -88.4745       4 -45.8257       5 -45.8257
       6 -45.8263       7-104.2591       8-104.2591       9-104.2588



 E-fermi :  -6.4715     XC(G=0):  -0.1436     alpha+bet : -0.0635

 Fermi energy:        -6.4715129654

 k-point     1 :       0.0000    0.0000    0.0000
  band No.  band energies     occupation 
      1     -25.9724      2.00000
      2     -22.8132      2.00000
      3     -22.8132      2.00000
      4     -17.2852      2.00000
      5     -17.2847      2.00000
      6     -13.8542      2.00000
      7     -13.7821      2.00000
      8     -11.5275      2.00000
      9     -10.7435      2.00000
     10     -10.7427      2.00000
     11      -9.1546      2.00000
     12      -8.5577      2.00000
     13      -8.5576      2.00000
     14      -6.5232      2.00000
     15      -6.5229      2.00000
     16      -2.7235      0.00000
     17      -2.7234      0.00000
     18      -0.4184      0.00000
     19       0.1072      0.00000
     20       0.1089      0.00000
     21       0.1094      0.00000
     22       0.1910      0.00000
     23       0.3587      0.00000
     24       0.7365      0.00000


--------------------------------------------------------------------------------------------------------


 soft charge-density along one line, spin component           1
         0         1         2         3         4         5         6         7         8         9
 total charge-density along one line

 pseudopotential strength for first ion, spin component:           1
 12.807  21.553   0.006  -0.000   0.003   0.011  -0.000   0.006
 21.553  36.273   0.011  -0.000   0.005   0.019  -0.000   0.010
  0.006   0.011  -3.212   0.000   0.001  -5.761   0.000   0.001
 -0.000  -0.000   0.000  -3.215   0.000   0.000  -5.765   0.000
  0.003   0.005   0.001   0.000  -3.213   0.001   0.000  -5.763
  0.011   0.019  -5.761   0.000   0.001 -10.309   0.000   0.002
 -0.000  -0.000   0.000  -5.765   0.000   0.000 -10.317   0.000
  0.006   0.010   0.001   0.000  -5.763   0.002   0.000 -10.313
 total augmentation occupancy for first ion, spin component:           1
  7.949  -2.846   1.070  -0.000   0.534  -0.514   0.000  -0.257
 -2.846   1.091  -0.568   0.000  -0.284   0.259  -0.000   0.129
  1.070  -0.568   6.854  -0.000  -0.758  -2.280   0.000   0.373
 -0.000   0.000  -0.000   2.817   0.000   0.000  -0.740  -0.000
  0.534  -0.284  -0.758   0.000   7.989   0.373  -0.000  -2.839
 -0.514   0.259  -2.280   0.000   0.373   0.779  -0.000  -0.171
  0.000  -0.000   0.000  -0.740  -0.000  -0.000   0.198   0.000
 -0.257   0.129   0.373  -0.000  -2.839  -0.171   0.000   1.035


------------------------ aborting loop because EDIFF is reached ----------------------------------------


    FORLOC:  cpu time      0.0337: real time      0.0337
    FORNL :  cpu time      0.0241: real time      0.0245
    FORCOR:  cpu time      0.5111: real time      0.5115
    OFIELD:  cpu time      0.0066: real time      0.0074

 VOLUME and BASIS-vectors are now :
 -----------------------------------------------------------------------------
  energy-cutoff  :     1000.00
  volume of cell :    10648.00
      direct lattice vectors                 reciprocal lattice vectors
    22.000000000  0.000000000  0.000000000     0.045454545  0.000000000  0.000000000
     0.000000000 22.000000000  0.000000000     0.000000000  0.045454545  0.000000000
     0.000000000  0.000000000 22.000000000     0.000000000  0.000000000  0.045454545

  length of vectors
    22.000000000 22.000000000 22.000000000     0.045454545  0.045454545  0.045454545


 FORCES acting on ions:
    Electron-Ion                     Ewald-Force                    Non-Local-Force
 -----------------------------------------------------------------------------------------------
   0.989E+02 0.198E+03 -.546E-02   -.101E+03 -.201E+03 0.587E-02   0.180E+01 0.359E+01 -.612E-03
   -.221E+03 -.132E+02 0.387E-01   0.225E+03 0.135E+02 -.391E-01   -.401E+01 -.239E+00 0.261E-02
   0.122E+03 -.185E+03 0.660E-02   -.124E+03 0.188E+03 -.744E-02   0.221E+01 -.335E+01 0.158E-02
   -.860E+02 -.517E+01 0.629E-02   0.921E+02 0.553E+01 -.670E-02   -.599E+01 -.361E+00 0.305E-03
   0.385E+02 0.770E+02 0.506E-02   -.413E+02 -.825E+02 -.520E-02   0.269E+01 0.537E+01 0.531E-03
   0.474E+02 -.719E+02 0.888E-02   -.508E+02 0.770E+02 -.932E-02   0.331E+01 -.501E+01 0.797E-03
   -.162E+03 0.245E+03 0.138E-02   0.183E+03 -.277E+03 -.331E-02   -.209E+02 0.317E+02 0.853E-03
   0.294E+03 0.176E+02 0.349E-01   -.331E+03 -.198E+02 -.412E-01   0.379E+02 0.227E+01 0.592E-02
   -.132E+03 -.263E+03 -.972E-01   0.148E+03 0.297E+03 0.106E+00   -.170E+02 -.340E+02 -.111E-01
 -----------------------------------------------------------------------------------------------
   0.772E-02 0.235E-02 -.827E-03   0.853E-13 0.568E-13 0.000E+00   -.770E-02 -.228E-02 0.850E-03


 POSITION                                       TOTAL-FORCE (eV/Angst)
 -----------------------------------------------------------------------------------
      9.91484      9.91149     10.99987         0.065802      0.123847     -0.000206
     11.78950     11.14894     10.99987        -0.143550     -0.006300      0.002213
      9.78050     12.15370     10.99993         0.078904     -0.117943      0.000710
     12.87815     11.21447     10.99981         0.103822      0.004696     -0.000113
      9.42702      8.93600     10.99979        -0.046271     -0.091941      0.000383
      9.17989     13.06400     10.99980        -0.059865      0.087011      0.000352
     11.25283      9.92324     10.99988         0.078199     -0.114224     -0.001103
      9.12185     10.98907     10.99979        -0.143980     -0.006902     -0.000446
     11.11021     12.30180     11.00021         0.066940      0.121756     -0.001790
 -----------------------------------------------------------------------------------
    total drift:                                0.000019      0.000074      0.000023


--------------------------------------------------------------------------------------------------------



  FREE ENERGIE OF THE ION-ELECTRON SYSTEM (eV)
  ---------------------------------------------------
  free  energy   TOTEN  =       -62.04848260 eV

  energy  without entropy=      -62.04848260  energy(sigma->0) =      -62.04848260



--------------------------------------------------------------------------------------------------------


    POTLOK:  cpu time      0.5892: real time      0.5893


--------------------------------------------------------------------------------------------------------


 stress matrix after NEB project (eV)
      0.00000      0.00000      0.00000
      0.00000      0.00000      0.00000
      0.00000      0.00000      0.00000
  FORCES: max atom, RMS     0.144146    0.130067
  FORCE total and by dimension    0.390200    0.143980
  Stress total and by dimension    0.000000    0.000000
     LOOP+:  cpu time     40.6281: real time     40.9140
    4ORBIT:  cpu time      0.0000: real time      0.0000

 total amount of memory used by VASP MPI-rank0   108656. kBytes
=======================================================================

   base      :      30000. kBytes
   nonl-proj :       4010. kBytes
   fftplans  :      24880. kBytes
   grid      :      48046. kBytes
   one-center:          1. kBytes
   wavefun   :       1719. kBytes

  
  
 General timing and accounting informations for this job:
 ========================================================
  
                  Total CPU time used (sec):       69.105
                            User time (sec):       65.590
                          System time (sec):        3.515
                         Elapsed time (sec):       77.176
  
                   Maximum memory used (kb):      287696.
                   Average memory used (kb):          N/A
  
                          Minor page faults:       184771
                          Major page faults:          616
                 Voluntary context switches:         7098
