 vasp.6.4.1 05Apr23 (build Jun  6 2023 14:46:38) gamma-only                      
 executed on        HPECrayEX_GCC date 2024.08.22  05:15:00
 running  512 mpi-ranks, with    1 threads/rank, on    4 nodes
 distrk:  each k-point on  512 cores,    1 groups
 distr:  one band on NCORE= 128 cores,    4 groups


--------------------------------------------------------------------------------------------------------


 INCAR:
   ALGO = Conjugate
   NPAR = 4
   ISMEAR = 0
   SIGMA = 0.01
   PREC = Accurate
   EDIFF = 1E-7
   ENCUT = 1000
   ISIF = 0
   IVDW = 2
   SYMPREC = 1E-7
   LWAVE = .FALSE.
   LCHARG = .FALSE.

 POTCAR:    PAW_PBE C_h 06Feb2004                 
 POTCAR:    PAW_PBE H_h 06Feb2004                 
 POTCAR:    PAW_PBE N_h 06Feb2004                 
 POTCAR:    PAW_PBE C_h 06Feb2004                 
   VRHFIN =C: s2p2                                                                                  
   LEXCH  = PE                                                                                      
   EATOM  =   147.1560 eV,   10.8157 Ry                                                             
                                                                                                    
   TITEL  = PAW_PBE C_h 06Feb2004                                                                   
   LULTRA =        F    use ultrasoft PP ?                                                          
   IUNSCR =        1    unscreen: 0-lin 1-nonlin 2-no                                               
   RPACOR =    0.800    partial core radius                                                         
   POMASS =   12.011; ZVAL   =    4.000    mass and valenz                                          
   RCORE  =    1.100    outmost cutoff radius                                                       
   RWIGS  =    1.630; RWIGS  =    0.863    wigner-seitz radius (au A)                               
   ENMAX  =  700.000; ENMIN  =  500.000 eV                                                          
   ICORE  =        2    local potential                                                             
   LCOR   =        T    correct aug charges                                                         
   LPAW   =        T    paw PP                                                                      
   EAUG   =  946.768                                                                                
   DEXC   =    0.000                                                                                
   RMAX   =    1.128    core radius for proj-oper                                                   
   RAUG   =    1.300    factor for augmentation sphere                                              
   RDEP   =    1.162    radius for radial grids                                                     
   RDEPT  =    1.088    core radius for aug-charge                                                  
                                                                                                    
   Atomic configuration                                                                             
    4 entries                                                                                       
     n  l   j            E        occ.                                                              
     1  0  0.50      -273.3789   2.0000                                                             
     2  0  0.50       -13.7508   2.0000                                                             
     2  1  0.50        -5.2854   2.0000                                                             
     3  2  1.50        -5.4423   0.0000                                                             
   Description                                                                                      
     l       E           TYP  RCUT    TYP  RCUT                                                     
     0    -13.7508458     23  1.100                                                                 
     0     -8.2022199     23  1.100                                                                 
     1     -5.2854383     23  1.100                                                                 
     1      1.1560700     23  1.100                                                                 
     2     -5.4423304      7  1.100                                                                 
  local pseudopotential read in
  partial core-charges read in
  partial kinetic energy density read in
  atomic valenz-charges read in
  non local Contribution for L=           0  read in
    real space projection operators read in
  non local Contribution for L=           0  read in
    real space projection operators read in
  non local Contribution for L=           1  read in
    real space projection operators read in
  non local Contribution for L=           1  read in
    real space projection operators read in
    PAW grid and wavefunctions read in

   number of l-projection  operators is LMAX  =           4
   number of lm-projection operators is LMMAX =           8

 POTCAR:    PAW_PBE H_h 06Feb2004                 
   VRHFIN =H: ultrasoft test                                                                        
   LEXCH  = PE                                                                                      
   EATOM  =    12.4884 eV,    0.9179 Ry                                                             
                                                                                                    
   TITEL  = PAW_PBE H_h 06Feb2004                                                                   
   LULTRA =        F    use ultrasoft PP ?                                                          
   IUNSCR =        0    unscreen: 0-lin 1-nonlin 2-no                                               
   RPACOR =    0.000    partial core radius                                                         
   POMASS =    1.000; ZVAL   =    1.000    mass and valenz                                          
   RCORE  =    0.800    outmost cutoff radius                                                       
   RWIGS  =    0.700; RWIGS  =    0.370    wigner-seitz radius (au A)                               
   ENMAX  =  700.000; ENMIN  =  350.000 eV                                                          
   RCLOC  =    0.701    cutoff for local pot                                                        
   LCOR   =        T    correct aug charges                                                         
   LPAW   =        T    paw PP                                                                      
   EAUG   = 1000.000                                                                                
   RMAX   =    0.819    core radius for proj-oper                                                   
   RAUG   =    1.000    factor for augmentation sphere                                              
   RDEP   =    0.817    radius for radial grids                                                     
   RDEPT  =    0.817    core radius for aug-charge                                                  
                                                                                                    
   Atomic configuration                                                                             
    2 entries                                                                                       
     n  l   j            E        occ.                                                              
     1  0  0.50        -6.4927   1.0000                                                             
     2  1  0.50        -3.4015   0.0000                                                             
   Description                                                                                      
     l       E           TYP  RCUT    TYP  RCUT                                                     
     0     -6.4927493     23  0.800                                                                 
     0      6.8029130     23  0.800                                                                 
     1     -6.8029130     23  0.800                                                                 
  local pseudopotential read in
  atomic valenz-charges read in
  non local Contribution for L=           0  read in
    real space projection operators read in
  non local Contribution for L=           0  read in
    real space projection operators read in
  non local Contribution for L=           1  read in
    real space projection operators read in
    PAW grid and wavefunctions read in

   number of l-projection  operators is LMAX  =           3
   number of lm-projection operators is LMMAX =           5

 POTCAR:    PAW_PBE N_h 06Feb2004                 
   VRHFIN =N: s2p3                                                                                  
   LEXCH  = PE                                                                                      
   EATOM  =   264.5486 eV,   19.4438 Ry                                                             
                                                                                                    
   TITEL  = PAW_PBE N_h 06Feb2004                                                                   
   LULTRA =        F    use ultrasoft PP ?                                                          
   IUNSCR =        1    unscreen: 0-lin 1-nonlin 2-no                                               
   RPACOR =    0.800    partial core radius                                                         
   POMASS =   14.001; ZVAL   =    5.000    mass and valenz                                          
   RCORE  =    1.100    outmost cutoff radius                                                       
   RWIGS  =    1.480; RWIGS  =    0.783    wigner-seitz radius (au A)                               
   ENMAX  =  700.000; ENMIN  =  500.000 eV                                                          
   ICORE  =        2    local potential                                                             
   LCOR   =        T    correct aug charges                                                         
   LPAW   =        T    paw PP                                                                      
   EAUG   =  904.640                                                                                
   DEXC   =    0.000                                                                                
   RMAX   =    1.127    core radius for proj-oper                                                   
   RAUG   =    1.300    factor for augmentation sphere                                              
   RDEP   =    1.115    radius for radial grids                                                     
   RDEPT  =    1.106    core radius for aug-charge                                                  
                                                                                                    
   Atomic configuration                                                                             
    4 entries                                                                                       
     n  l   j            E        occ.                                                              
     1  0  0.50      -384.7179   2.0000                                                             
     2  0  0.50       -18.5828   2.0000                                                             
     2  1  0.50        -7.0898   3.0000                                                             
     3  2  1.50        -6.8029   0.0000                                                             
   Description                                                                                      
     l       E           TYP  RCUT    TYP  RCUT                                                     
     0    -18.5828117     23  1.100                                                                 
     0    -15.0750597     23  1.100                                                                 
     1     -7.0897851     23  1.100                                                                 
     1     -1.9663412     23  1.100                                                                 
     2     -6.8029130      7  1.100                                                                 
  local pseudopotential read in
  partial core-charges read in
  partial kinetic energy density read in
  kinetic energy density of atom read in
  atomic valenz-charges read in
  non local Contribution for L=           0  read in
    real space projection operators read in
  non local Contribution for L=           0  read in
    real space projection operators read in
  non local Contribution for L=           1  read in
    real space projection operators read in
  non local Contribution for L=           1  read in
    real space projection operators read in
    PAW grid and wavefunctions read in

   number of l-projection  operators is LMAX  =           4
   number of lm-projection operators is LMMAX =           8

  PAW_PBE C_h 06Feb2004                 :
 energy of atom  1       EATOM= -147.1560
 kinetic energy error for atom=    0.0031 (will be added to EATOM!!)
  PAW_PBE H_h 06Feb2004                 :
 energy of atom  2       EATOM=  -12.4884
 kinetic energy error for atom=    0.0006 (will be added to EATOM!!)
  PAW_PBE N_h 06Feb2004                 :
 energy of atom  3       EATOM= -264.5486
 kinetic energy error for atom=    0.0081 (will be added to EATOM!!)


 POSCAR:  C  H  N
  positions in cartesian coordinates
  No initial velocities read in
 exchange correlation table for  LEXCH =        8
   RHO(1)=    0.500       N(1)  =     2000
   RHO(2)=  100.500       N(2)  =     4000

 VTST: version 4.1, (05/19/21)

 CHAIN: initializing optimizer
 
 OPT: Using VASP Dynamics algorithm
 CHAIN: Read ICHAIN            0

 POSCAR:  C  H  N
  positions in cartesian coordinates
  No initial velocities read in



--------------------------------------------------------------------------------------------------------


 ion  position               nearest neighbor table
   1  0.451  0.451  0.500-   5 1.09   8 1.34   7 1.34
   2  0.536  0.507  0.500-   4 1.09   7 1.34   9 1.34
   3  0.445  0.552  0.500-   6 1.09   9 1.34   8 1.34
   4  0.585  0.510  0.500-   2 1.09
   5  0.429  0.406  0.500-   1 1.09
   6  0.417  0.594  0.500-   3 1.09
   7  0.511  0.451  0.500-   2 1.34   1 1.34
   8  0.415  0.500  0.500-   1 1.34   3 1.34
   9  0.505  0.559  0.500-   3 1.34   2 1.34

  LATTYP: Found a simple cubic cell.
 ALAT       =    22.0000000000
  
  Lattice vectors:
  
 A1 = (  22.0000000000,   0.0000000000,   0.0000000000)
 A2 = (   0.0000000000,  22.0000000000,   0.0000000000)
 A3 = (   0.0000000000,   0.0000000000,  22.0000000000)


Analysis of symmetry for initial positions (statically):
=====================================================================
 Subroutine PRICEL returns:
 Original cell was already a primitive cell.
 

 Routine SETGRP: Setting up the symmetry group for a 
 simple cubic supercell.


 Subroutine GETGRP returns: Found  1 space group operations
 (whereof  1 operations were pure point group operations)
 out of a pool of 48 trial point group operations.


The static configuration has the point symmetry C_1 .


Analysis of symmetry for dynamics (positions and initial velocities):
=====================================================================
 Subroutine PRICEL returns:
 Original cell was already a primitive cell.
 

 Routine SETGRP: Setting up the symmetry group for a 
 simple cubic supercell.


 Subroutine GETGRP returns: Found  1 space group operations
 (whereof  1 operations were pure point group operations)
 out of a pool of 48 trial point group operations.


The dynamic configuration has the point symmetry C_1 .


 Subroutine INISYM returns: Found  1 space group operations
 (whereof  1 operations are pure point group operations),
 and found     1 'primitive' translations


----------------------------------------------------------------------------------------

                                     Primitive cell                                     

  volume of cell :   10648.0000

  direct lattice vectors                    reciprocal lattice vectors
    22.000000000  0.000000000  0.000000000     0.045454545  0.000000000  0.000000000
     0.000000000 22.000000000  0.000000000     0.000000000  0.045454545  0.000000000
     0.000000000  0.000000000 22.000000000     0.000000000  0.000000000  0.045454545

  length of vectors
    22.000000000 22.000000000 22.000000000     0.045454545  0.045454545  0.045454545

  position of ions in fractional coordinates (direct lattice)
     0.450674545  0.450522045  0.499994091
     0.535886364  0.506769773  0.499994091
     0.444568182  0.552441136  0.499996818
     0.585370455  0.509748409  0.499991364
     0.428500909  0.406182045  0.499990455
     0.417267727  0.593817955  0.499990909
     0.511492273  0.451056591  0.499994545
     0.414629545  0.499502955  0.499990455
     0.505009545  0.559172500  0.500009545

  ion indices of the primitive-cell ions
   primitive index   ion index
                 1           1
                 2           2
                 3           3
                 4           4
                 5           5
                 6           6
                 7           7
                 8           8
                 9           9

----------------------------------------------------------------------------------------



 KPOINTS: auto                                    

Automatic generation of k-mesh.
 Grid dimensions read from file:
 generate k-points for:    1    1    1

 Generating k-lattice:

  Cartesian coordinates                     Fractional coordinates (reciprocal lattice)
     0.045454545  0.000000000  0.000000000     1.000000000  0.000000000  0.000000000
     0.000000000  0.045454545  0.000000000     0.000000000  1.000000000  0.000000000
     0.000000000  0.000000000  0.045454545     0.000000000  0.000000000  1.000000000

  Length of vectors
     0.045454545  0.045454545  0.045454545

  Shift w.r.t. Gamma in fractional coordinates (k-lattice)
     0.000000000  0.000000000  0.000000000

 
 Subroutine IBZKPT returns following result:
 ===========================================
 
 Found      1 irreducible k-points:
 
 Following reciprocal coordinates:
            Coordinates               Weight
  0.000000  0.000000  0.000000      1.000000
 
 Following cartesian coordinates:
            Coordinates               Weight
  0.000000  0.000000  0.000000      1.000000
 


--------------------------------------------------------------------------------------------------------




 Dimension of arrays:
   k-points           NKPTS =      1   k-points in BZ     NKDIM =      1   number of bands    NBANDS=     20
   number of dos      NEDOS =    301   number of ions     NIONS =      9
   non local maximal  LDIM  =      4   non local SUM 2l+1 LMDIM =      8
   total plane-waves  NPLWV = ******
   max r-space proj   IRMAX =      1   max aug-charges    IRDMAX=   9419
   dimension x,y,z NGX =   240 NGY =  240 NGZ =  240
   dimension x,y,z NGXF=   480 NGYF=  480 NGZF=  480
   support grid    NGXF=   480 NGYF=  480 NGZF=  480
   ions per type =               3   3   3
   NGX,Y,Z   is equivalent  to a cutoff of  18.14, 18.14, 18.14 a.u.
   NGXF,Y,Z  is equivalent  to a cutoff of  36.27, 36.27, 36.27 a.u.

 SYSTEM =  unknown system                          
 POSCAR =   C  H  N                                

 Startparameter for this run:
   NWRITE =      2    write-flag & timer
   PREC   = accura    normal or accurate (medium, high low for compatibility)
   ISTART =      0    job   : 0-new  1-cont  2-samecut
   ICHARG =      2    charge: 1-file 2-atom 10-const
   ISPIN  =      1    spin polarized calculation?
   LNONCOLLINEAR =      F non collinear calculations
   LSORBIT =      F    spin-orbit coupling
   INIWAV =      1    electr: 0-lowe 1-rand  2-diag
   LASPH  =      F    aspherical Exc in radial PAW
 Electronic Relaxation 1
   ENCUT  = 1000.0 eV  73.50 Ry    8.57 a.u.  56.73 56.73 56.73*2*pi/ulx,y,z
   ENINI  = 1000.0     initial cutoff
   ENAUG  = 1000.0 eV  augmentation charge cutoff
   NELM   =     60;   NELMIN=  2; NELMDL= -5     # of ELM steps 
   EDIFF  = 0.1E-06   stopping-criterion for ELM
   LREAL  =      F    real-space projection
   NLSPLINE    = F    spline interpolate recip. space projectors
   LCOMPAT=      F    compatible to vasp.4.4
   GGA_COMPAT  = T    GGA compatible to vasp.4.4-vasp.4.6
   LMAXPAW     = -100 max onsite density
   LMAXMIX     =    2 max onsite mixed and CHGCAR
   VOSKOWN=      0    Vosko Wilk Nusair interpolation
   ROPT   =    0.00000   0.00000   0.00000
 Ionic relaxation
   EDIFFG = 0.1E-05   stopping-criterion for IOM
   NSW    =      0    number of steps for IOM
   NBLOCK =      1;   KBLOCK =      1    inner block; outer block 
   IBRION =     -1    ionic relax: 0-MD 1-quasi-New 2-CG
   NFREE  =      0    steps in history (QN), initial steepest desc. (CG)
   ISIF   =      0    stress and relaxation
   IWAVPR =     10    prediction:  0-non 1-charg 2-wave 3-comb
   ISYM   =      2    0-nonsym 1-usesym 2-fastsym
   LCORR  =      T    Harris-Foulkes like correction to forces

   POTIM  = 0.5000    time-step for ionic-motion
   TEIN   =    0.0    initial temperature
   TEBEG  =    0.0;   TEEND  =   0.0 temperature during run
   SMASS  =  -3.00    Nose mass-parameter (am)
   estimated Nose-frequenzy (Omega)   =  0.10E-29 period in steps = 0.13E+47 mass=  -0.111E-25a.u.
   SCALEE = 1.0000    scale energy and forces
   NPACO  =    256;   APACO  = 10.0  distance and # of slots for P.C.
   PSTRESS=    0.0 pullay stress

  Mass of Ions in am
   POMASS =  12.01  1.00 14.00
  Ionic Valenz
   ZVAL   =   4.00  1.00  5.00
  Atomic Wigner-Seitz radii
   RWIGS  =  -1.00 -1.00 -1.00
  virtual crystal weights 
   VCA    =   1.00  1.00  1.00
   NELECT =      30.0000    total number of electrons
   NUPDOWN=      -1.0000    fix difference up-down

 DOS related values:
   EMIN   =  10.00;   EMAX   =-10.00  energy-range for DOS
   EFERMI =   0.00;   METHOD = LEGACY      
   ISMEAR =     0;   SIGMA  =   0.01  broadening in eV -4-tet -1-fermi 0-gaus

 Electronic relaxation 2 (details)
   IALGO  =     58    algorithm
   LDIAG  =      T    sub-space diagonalisation (order eigenvalues)
   LSUBROT=      F    optimize rotation matrix (better conditioning)
   TURBO    =      0    0=normal 1=particle mesh
   IRESTART =      0    0=no restart 2=restart with 2 vectors
   NREBOOT  =      0    no. of reboots
   NMIN     =      0    reboot dimension
   EREF     =   0.00    reference energy to select bands
   IMIX   =      4    mixing-type and parameters
     AMIX     =   0.40;   BMIX     =  1.00
     AMIX_MAG =   1.60;   BMIX_MAG =  1.00
     AMIN     =   0.10
     WC   =   100.;   INIMIX=   1;  MIXPRE=   1;  MAXMIX= -45

 Intra band minimization:
   WEIMIN = 0.0000     energy-eigenvalue tresh-hold
   EBREAK =  0.13E-08  absolut break condition
   DEPER  =   0.30     relativ break condition  

   TIME   =   0.40     timestep for ELM

  volume/ion in A,a.u.               =    1183.11      7984.03
  Fermi-wavevector in a.u.,A,eV,Ry     =   0.231220  0.436943  0.727406  0.053463
  Thomas-Fermi vector in A             =   1.025338

 Write flags
   LWAVE        =      F    write WAVECAR
   LDOWNSAMPLE  =      F    k-point downsampling of WAVECAR
   LCHARG       =      F    write CHGCAR
   LVTOT        =      F    write LOCPOT, total local potential
   LVHAR        =      F    write LOCPOT, Hartree potential only
   LELF         =      F    write electronic localiz. function (ELF)
   LORBIT       =      0    0 simple, 1 ext, 2 COOP (PROOUT), +10 PAW based schemes


 Dipole corrections
   LMONO  =      F    monopole corrections only (constant potential shift)
   LDIPOL =      F    correct potential (dipole corrections)
   IDIPOL =      0    1-x, 2-y, 3-z, 4-all directions 
   EPSILON=  1.0000000 bulk dielectric constant

 Exchange correlation treatment:
   GGA     =    --    GGA type
   LEXCH   =     8    internal setting for exchange type
   LIBXC   =     F    Libxc                    
   VOSKOWN =     0    Vosko Wilk Nusair interpolation
   LHFCALC =     F    Hartree Fock is set to
   LHFONE  =     F    Hartree Fock one center treatment
   AEXX    =    0.0000 exact exchange contribution

 Linear response parameters
   LEPSILON=     F    determine dielectric tensor
   LRPA    =     F    only Hartree local field effects (RPA)
   LNABLA  =     F    use nabla operator in PAW spheres
   LVEL    =     F    velocity operator in full k-point grid
   CSHIFT  =0.1000    complex shift for real part using Kramers Kronig
   OMEGAMAX=  -1.0    maximum frequency
   DEG_THRESHOLD= 0.2000000E-02 threshold for treating states as degnerate
   RTIME   =   -0.100 relaxation time in fs
  (WPLASMAI=    0.000 imaginary part of plasma frequency in eV, 0.658/RTIME)
   DFIELD  = 0.0000000 0.0000000 0.0000000 field for delta impulse in time

  Optional k-point grid parameters
   LKPOINTS_OPT  =     F    use optional k-point grid
   KPOINTS_OPT_MODE=     1    mode for optional k-point grid

 Orbital magnetization related:
   ORBITALMAG=     F  switch on orbital magnetization
   LCHIMAG   =     F  perturbation theory with respect to B field
   DQ        =  0.001000  dq finite difference perturbation B field
   LLRAUG    =     F  two centre corrections for induced B field
   LBONE     =     F  B-component reconstruction in AE one-centre
   LVGVCALC  =     T  calculate vGv susceptibility
   LVGVAPPL  =     F  apply vGv susceptibility instead of pGv for G=0

 Random number generation:
   RANDOM_GENERATOR = DEFAULT
   PCG_SEED         = not used


--------------------------------------------------------------------------------------------------------


 Static calculation
 charge density and potential will be updated during run
 non-spin polarized calculation
 Conjugate gradient for all bands (Freysoldt, et al. PRB 79, 241103 (2009))
 preconditioned conjugated gradient                                        
 perform sub-space diagonalisation
    before iterative eigenvector-optimisation
 modified Broyden-mixing scheme, WC =      100.0
 initial mixing is a Kerker type mixing with AMIX =  0.4000 and BMIX =      1.0000
 Hartree-type preconditioning will be used
 using additional bands            5
 reciprocal scheme for non local part
 use partial core corrections
 no Harris-corrections to forces 
 use gradient corrections 
 use of overlap-Matrix (Vanderbilt PP)
 Gauss-broadening in eV      SIGMA  =   0.01


--------------------------------------------------------------------------------------------------------


  energy-cutoff  :     1000.00
  volume of cell :    10648.00
      direct lattice vectors                 reciprocal lattice vectors
    22.000000000  0.000000000  0.000000000     0.045454545  0.000000000  0.000000000
     0.000000000 22.000000000  0.000000000     0.000000000  0.045454545  0.000000000
     0.000000000  0.000000000 22.000000000     0.000000000  0.000000000  0.045454545

  length of vectors
    22.000000000 22.000000000 22.000000000     0.045454545  0.045454545  0.045454545



 k-points in units of 2pi/SCALE and weight: auto                                    
   0.00000000  0.00000000  0.00000000       1.000

 k-points in reciprocal lattice and weights: auto                                    
   0.00000000  0.00000000  0.00000000       1.000

 position of ions in fractional coordinates (direct lattice) 
   0.45067455  0.45052205  0.49999409
   0.53588636  0.50676977  0.49999409
   0.44456818  0.55244114  0.49999682
   0.58537045  0.50974841  0.49999136
   0.42850091  0.40618205  0.49999045
   0.41726773  0.59381795  0.49999091
   0.51149227  0.45105659  0.49999455
   0.41462955  0.49950295  0.49999045
   0.50500955  0.55917250  0.50000955

 position of ions in cartesian coordinates  (Angst):
   9.91484000  9.91148500 10.99987000
  11.78950000 11.14893500 10.99987000
   9.78050000 12.15370500 10.99993000
  12.87815000 11.21446500 10.99981000
   9.42702000  8.93600500 10.99979000
   9.17989000 13.06399500 10.99980000
  11.25283000  9.92324500 10.99988000
   9.12185000 10.98906500 10.99979000
  11.11021000 12.30179500 11.00021000



--------------------------------------------------------------------------------------------------------


 use parallel FFT for orbitals z direction half grid
 k-point   1 :   0.0000 0.0000 0.0000  plane waves:  381993

 maximum and minimum number of plane-waves per node :      2992     2977

 maximum number of plane-waves:    381993
 maximum index in each direction: 
   IXMAX=   56   IYMAX=   56   IZMAX=   56
   IXMIN=  -56   IYMIN=  -56   IZMIN=    0


 parallel 3D FFT for wavefunctions:
    minimum data exchange during FFTs selected (reduces bandwidth)
 parallel 3D FFT for charge:
    minimum data exchange during FFTs selected (reduces bandwidth)


 total amount of memory used by VASP MPI-rank0    61522. kBytes
=======================================================================

   base      :      30000. kBytes
   nonl-proj :       1002. kBytes
   fftplans  :      10395. kBytes
   grid      :      19407. kBytes
   one-center:          1. kBytes
   wavefun   :        717. kBytes

     INWAV:  cpu time      0.0001: real time      0.0003
 Broyden mixing: mesh for mixing (old mesh)
   NGX =113   NGY =113   NGZ =113
  (NGX  =480   NGY  =480   NGZ  =480)
  gives a total of ****** points

 initial charge density was supplied:
 charge density of overlapping atoms calculated
 number of electron      30.0000000 magnetization 
 keeping initial charge density in first step


--------------------------------------------------------------------------------------------------------


 Maximum index for augmentation-charges            0 (set IRDMAX)


--------------------------------------------------------------------------------------------------------


 First call to EWALD:  gamma=   0.081
 Maximum number of real-space cells 3x 3x 3
 Maximum number of reciprocal cells 3x 3x 3

    FEWALD:  cpu time      0.0033: real time      0.0033


--------------------------------------- Ionic step        1  -------------------------------------------




--------------------------------------- Iteration      1(   1)  ---------------------------------------


    POTLOK:  cpu time      0.3097: real time      0.3109
    SETDIJ:  cpu time      0.0091: real time      0.0094
    TRIAL :  cpu time      0.2688: real time      0.2708
    CORREC:  cpu time      0.0016: real time      0.0016
    --------------------------------------------
      LOOP:  cpu time      0.5946: real time      0.5985

 eigenvalue-minimisations  :    56
 total energy-change (2. order) : 0.2787527E+03  (-0.7614045E+03)
 number of electron      30.0000000 magnetization 
 augmentation part       30.0000000 magnetization 

 Free energy of the ion-electron system (eV)
  ---------------------------------------------------
  alpha Z        PSCENC =         0.26191385
  Ewald energy   TEWEN  =      2086.81657480
  -Hartree energ DENC   =     -2998.78842140
  -exchange      EXHF   =         0.00000000
  -V(xc)+E(xc)   XCENC  =        77.58734231
  PAW double counting   =       967.73526564     -948.01650090
  entropy T*S    EENTRO =        -0.00000000
  eigenvalues    EBANDS =      -179.38707131
  atomic energy  EATOM  =      1272.54359529
  ---------------------------------------------------
  free energy    TOTEN  =       278.75269829 eV

  energy without entropy =      278.75269829  energy(sigma->0) =      278.75269829


--------------------------------------------------------------------------------------------------------




--------------------------------------- Iteration      1(   2)  ---------------------------------------


    TRIAL :  cpu time      0.2390: real time      0.2390
    CORREC:  cpu time      0.0001: real time      0.0001
    --------------------------------------------
      LOOP:  cpu time      0.2706: real time      0.2709

 eigenvalue-minimisations  :    60
 total energy-change (2. order) :-0.1294136E+03  (-0.1277095E+03)
 number of electron      30.0000000 magnetization 
 augmentation part       30.0000000 magnetization 

 Free energy of the ion-electron system (eV)
  ---------------------------------------------------
  alpha Z        PSCENC =         0.26191385
  Ewald energy   TEWEN  =      2086.81657480
  -Hartree energ DENC   =     -2998.78842140
  -exchange      EXHF   =         0.00000000
  -V(xc)+E(xc)   XCENC  =        77.58734231
  PAW double counting   =       967.73526564     -948.01650090
  entropy T*S    EENTRO =        -0.00000000
  eigenvalues    EBANDS =      -308.80072031
  atomic energy  EATOM  =      1272.54359529
  ---------------------------------------------------
  free energy    TOTEN  =       149.33904929 eV

  energy without entropy =      149.33904929  energy(sigma->0) =      149.33904929


--------------------------------------------------------------------------------------------------------




--------------------------------------- Iteration      1(   3)  ---------------------------------------


    TRIAL :  cpu time      0.2719: real time      0.2723
    CORREC:  cpu time      0.0001: real time      0.0001
    --------------------------------------------
      LOOP:  cpu time      0.2904: real time      0.3026

 eigenvalue-minimisations  :    72
 total energy-change (2. order) :-0.1504402E+03  (-0.1494634E+03)
 number of electron      30.0000000 magnetization 
 augmentation part       30.0000000 magnetization 

 Free energy of the ion-electron system (eV)
  ---------------------------------------------------
  alpha Z        PSCENC =         0.26191385
  Ewald energy   TEWEN  =      2086.81657480
  -Hartree energ DENC   =     -2998.78842140
  -exchange      EXHF   =         0.00000000
  -V(xc)+E(xc)   XCENC  =        77.58734231
  PAW double counting   =       967.73526564     -948.01650090
  entropy T*S    EENTRO =        -0.00000000
  eigenvalues    EBANDS =      -459.24094630
  atomic energy  EATOM  =      1272.54359529
  ---------------------------------------------------
  free energy    TOTEN  =        -1.10117670 eV

  energy without entropy =       -1.10117670  energy(sigma->0) =       -1.10117670


--------------------------------------------------------------------------------------------------------




--------------------------------------- Iteration      1(   4)  ---------------------------------------


    TRIAL :  cpu time      0.2239: real time      0.2239
    CORREC:  cpu time      0.0001: real time      0.0001
    --------------------------------------------
      LOOP:  cpu time      0.2376: real time      0.2537

 eigenvalue-minimisations  :    56
 total energy-change (2. order) :-0.6140720E+02  (-0.6134608E+02)
 number of electron      30.0000000 magnetization 
 augmentation part       30.0000000 magnetization 

 Free energy of the ion-electron system (eV)
  ---------------------------------------------------
  alpha Z        PSCENC =         0.26191385
  Ewald energy   TEWEN  =      2086.81657480
  -Hartree energ DENC   =     -2998.78842140
  -exchange      EXHF   =         0.00000000
  -V(xc)+E(xc)   XCENC  =        77.58734231
  PAW double counting   =       967.73526564     -948.01650090
  entropy T*S    EENTRO =        -0.00000000
  eigenvalues    EBANDS =      -520.64814521
  atomic energy  EATOM  =      1272.54359529
  ---------------------------------------------------
  free energy    TOTEN  =       -62.50837561 eV

  energy without entropy =      -62.50837561  energy(sigma->0) =      -62.50837561


--------------------------------------------------------------------------------------------------------




--------------------------------------- Iteration      1(   5)  ---------------------------------------


    TRIAL :  cpu time      0.2011: real time      0.2011
    CORREC:  cpu time      0.0001: real time      0.0001
    CHARGE:  cpu time      0.0711: real time      0.0717
    --------------------------------------------
      LOOP:  cpu time      0.2849: real time      0.3041

 eigenvalue-minimisations  :    48
 total energy-change (2. order) :-0.4217596E+01  (-0.4176242E+01)
 number of electron      30.0000000 magnetization 
 augmentation part       -0.1040508 magnetization 

 Free energy of the ion-electron system (eV)
  ---------------------------------------------------
  alpha Z        PSCENC =         0.26191385
  Ewald energy   TEWEN  =      2086.81657480
  -Hartree energ DENC   =     -2998.78842140
  -exchange      EXHF   =         0.00000000
  -V(xc)+E(xc)   XCENC  =        77.58734231
  PAW double counting   =       967.73526564     -948.01650090
  entropy T*S    EENTRO =        -0.00000000
  eigenvalues    EBANDS =      -524.86574077
  atomic energy  EATOM  =      1272.54359529
  ---------------------------------------------------
  free energy    TOTEN  =       -66.72597117 eV

  energy without entropy =      -66.72597117  energy(sigma->0) =      -66.72597117


--------------------------------------------------------------------------------------------------------




--------------------------------------- Iteration      1(   6)  ---------------------------------------


    POTLOK:  cpu time      0.3015: real time      0.3019
    SETDIJ:  cpu time      0.0018: real time      0.0018
    TRIAL :  cpu time      0.1245: real time      0.1255
    CORREC:  cpu time      0.3820: real time      0.3824
    CHARGE:  cpu time      0.0434: real time      0.0435
    --------------------------------------------
      LOOP:  cpu time      0.8703: real time      0.8865

 eigenvalue-minimisations  :     0
 total energy-change (2. order) : 0.8455425E+01  (-0.3233457E+01)
 number of electron      30.0000000 magnetization 
 augmentation part       -0.1104652 magnetization 

 Free energy of the ion-electron system (eV)
  ---------------------------------------------------
  alpha Z        PSCENC =         0.26191385
  Ewald energy   TEWEN  =      2086.81657480
  -Hartree energ DENC   =     -3206.16997098
  -exchange      EXHF   =         0.00000000
  -V(xc)+E(xc)   XCENC  =        86.74184112
  PAW double counting   =     10203.59676163   -10185.05986152
  entropy T*S    EENTRO =        -0.00000000
  eigenvalues    EBANDS =      -317.00140068
  atomic energy  EATOM  =      1272.54359529
  ---------------------------------------------------
  free energy    TOTEN  =       -58.27054649 eV

  energy without entropy =      -58.27054649  energy(sigma->0) =      -58.27054649


--------------------------------------------------------------------------------------------------------




--------------------------------------- Iteration      1(   7)  ---------------------------------------


    POTLOK:  cpu time      0.3063: real time      0.3066
    SETDIJ:  cpu time      0.0017: real time      0.0017
    TRIAL :  cpu time      0.1047: real time      0.1048
    CORREC:  cpu time      0.3770: real time      0.3771
    CHARGE:  cpu time      0.0431: real time      0.0432
    --------------------------------------------
      LOOP:  cpu time      0.8656: real time      0.8666

 eigenvalue-minimisations  :     0
 total energy-change (2. order) :-0.3266325E+01  (-0.3401883E+00)
 number of electron      30.0000000 magnetization 
 augmentation part       -0.1238158 magnetization 

 Free energy of the ion-electron system (eV)
  ---------------------------------------------------
  alpha Z        PSCENC =         0.26191385
  Ewald energy   TEWEN  =      2086.81657480
  -Hartree energ DENC   =     -3111.66163304
  -exchange      EXHF   =         0.00000000
  -V(xc)+E(xc)   XCENC  =        83.01105301
  PAW double counting   =     12454.06736133   -12435.05246393
  entropy T*S    EENTRO =        -0.00000000
  eigenvalues    EBANDS =      -411.52327316
  atomic energy  EATOM  =      1272.54359529
  ---------------------------------------------------
  free energy    TOTEN  =       -61.53687184 eV

  energy without entropy =      -61.53687184  energy(sigma->0) =      -61.53687184


--------------------------------------------------------------------------------------------------------




--------------------------------------- Iteration      1(   8)  ---------------------------------------


    POTLOK:  cpu time      0.3026: real time      0.3026
    SETDIJ:  cpu time      0.0017: real time      0.0017
    TRIAL :  cpu time      0.1042: real time      0.1045
    CORREC:  cpu time      0.3773: real time      0.3775
    CHARGE:  cpu time      0.0422: real time      0.0424
    --------------------------------------------
      LOOP:  cpu time      0.8418: real time      0.8593

 eigenvalue-minimisations  :     0
 total energy-change (2. order) :-0.3405477E+00  (-0.1009631E+00)
 number of electron      30.0000000 magnetization 
 augmentation part       -0.1269652 magnetization 

 Free energy of the ion-electron system (eV)
  ---------------------------------------------------
  alpha Z        PSCENC =         0.26191385
  Ewald energy   TEWEN  =      2086.81657480
  -Hartree energ DENC   =     -3113.30754912
  -exchange      EXHF   =         0.00000000
  -V(xc)+E(xc)   XCENC  =        82.95230506
  PAW double counting   =     13151.94665793   -13132.86041620
  entropy T*S    EENTRO =        -0.00000000
  eigenvalues    EBANDS =      -410.23050111
  atomic energy  EATOM  =      1272.54359529
  ---------------------------------------------------
  free energy    TOTEN  =       -61.87741952 eV

  energy without entropy =      -61.87741952  energy(sigma->0) =      -61.87741952


--------------------------------------------------------------------------------------------------------




--------------------------------------- Iteration      1(   9)  ---------------------------------------


    POTLOK:  cpu time      0.3021: real time      0.3021
    SETDIJ:  cpu time      0.0017: real time      0.0017
    TRIAL :  cpu time      0.1039: real time      0.1040
    CORREC:  cpu time      0.3863: real time      0.3871
    CHARGE:  cpu time      0.0437: real time      0.0439
    --------------------------------------------
      LOOP:  cpu time      0.8527: real time      0.8687

 eigenvalue-minimisations  :     0
 total energy-change (2. order) :-0.1011424E+00  (-0.4378293E-01)
 number of electron      30.0000000 magnetization 
 augmentation part       -0.1280188 magnetization 

 Free energy of the ion-electron system (eV)
  ---------------------------------------------------
  alpha Z        PSCENC =         0.26191385
  Ewald energy   TEWEN  =      2086.81657480
  -Hartree energ DENC   =     -3114.46877244
  -exchange      EXHF   =         0.00000000
  -V(xc)+E(xc)   XCENC  =        82.95331830
  PAW double counting   =     13322.53456678   -13303.42387065
  entropy T*S    EENTRO =        -0.00000000
  eigenvalues    EBANDS =      -409.19588783
  atomic energy  EATOM  =      1272.54359529
  ---------------------------------------------------
  free energy    TOTEN  =       -61.97856190 eV

  energy without entropy =      -61.97856190  energy(sigma->0) =      -61.97856190


--------------------------------------------------------------------------------------------------------




--------------------------------------- Iteration      1(  10)  ---------------------------------------


    POTLOK:  cpu time      0.3035: real time      0.3035
    SETDIJ:  cpu time      0.0017: real time      0.0017
    TRIAL :  cpu time      0.1043: real time      0.1043
    CORREC:  cpu time      0.3777: real time      0.3786
    CHARGE:  cpu time      0.0429: real time      0.0430
    --------------------------------------------
      LOOP:  cpu time      0.8607: real time      0.8621

 eigenvalue-minimisations  :     0
 total energy-change (2. order) :-0.4390472E-01  (-0.1705698E-01)
 number of electron      30.0000000 magnetization 
 augmentation part       -0.1280580 magnetization 

 Free energy of the ion-electron system (eV)
  ---------------------------------------------------
  alpha Z        PSCENC =         0.26191385
  Ewald energy   TEWEN  =      2086.81657480
  -Hartree energ DENC   =     -3112.33184684
  -exchange      EXHF   =         0.00000000
  -V(xc)+E(xc)   XCENC  =        82.90090396
  PAW double counting   =     13240.63471699   -13221.51519217
  entropy T*S    EENTRO =        -0.00000000
  eigenvalues    EBANDS =      -411.33313249
  atomic energy  EATOM  =      1272.54359529
  ---------------------------------------------------
  free energy    TOTEN  =       -62.02246663 eV

  energy without entropy =      -62.02246663  energy(sigma->0) =      -62.02246663


--------------------------------------------------------------------------------------------------------




--------------------------------------- Iteration      1(  11)  ---------------------------------------


    POTLOK:  cpu time      0.3013: real time      0.3013
    SETDIJ:  cpu time      0.0018: real time      0.0018
    TRIAL :  cpu time      0.1053: real time      0.1053
    CORREC:  cpu time      0.3798: real time      0.3800
    CHARGE:  cpu time      0.0431: real time      0.0439
    --------------------------------------------
      LOOP:  cpu time      0.8452: real time      0.8634

 eigenvalue-minimisations  :     0
 total energy-change (2. order) :-0.1704850E-01  (-0.6033939E-02)
 number of electron      30.0000000 magnetization 
 augmentation part       -0.1274548 magnetization 

 Free energy of the ion-electron system (eV)
  ---------------------------------------------------
  alpha Z        PSCENC =         0.26191385
  Ewald energy   TEWEN  =      2086.81657480
  -Hartree energ DENC   =     -3111.73939694
  -exchange      EXHF   =         0.00000000
  -V(xc)+E(xc)   XCENC  =        82.90103140
  PAW double counting   =     13088.17536524   -13069.06190563
  entropy T*S    EENTRO =        -0.00000000
  eigenvalues    EBANDS =      -411.93669313
  atomic energy  EATOM  =      1272.54359529
  ---------------------------------------------------
  free energy    TOTEN  =       -62.03951512 eV

  energy without entropy =      -62.03951512  energy(sigma->0) =      -62.03951512


--------------------------------------------------------------------------------------------------------




--------------------------------------- Iteration      1(  12)  ---------------------------------------


    POTLOK:  cpu time      0.3001: real time      0.3001
    SETDIJ:  cpu time      0.0018: real time      0.0018
    TRIAL :  cpu time      0.1043: real time      0.1043
    CORREC:  cpu time      0.3796: real time      0.3798
    CHARGE:  cpu time      0.0441: real time      0.0442
    --------------------------------------------
      LOOP:  cpu time      0.8446: real time      0.8610

 eigenvalue-minimisations  :     0
 total energy-change (2. order) :-0.6016281E-02  (-0.1986185E-02)
 number of electron      30.0000000 magnetization 
 augmentation part       -0.1271369 magnetization 

 Free energy of the ion-electron system (eV)
  ---------------------------------------------------
  alpha Z        PSCENC =         0.26191385
  Ewald energy   TEWEN  =      2086.81657480
  -Hartree energ DENC   =     -3111.62564863
  -exchange      EXHF   =         0.00000000
  -V(xc)+E(xc)   XCENC  =        82.89574480
  PAW double counting   =     13015.71272545   -12996.60457660
  entropy T*S    EENTRO =        -0.00000000
  eigenvalues    EBANDS =      -412.04586036
  atomic energy  EATOM  =      1272.54359529
  ---------------------------------------------------
  free energy    TOTEN  =       -62.04553140 eV

  energy without entropy =      -62.04553140  energy(sigma->0) =      -62.04553140


--------------------------------------------------------------------------------------------------------




--------------------------------------- Iteration      1(  13)  ---------------------------------------


    POTLOK:  cpu time      0.2978: real time      0.2985
    SETDIJ:  cpu time      0.0017: real time      0.0017
    TRIAL :  cpu time      0.1050: real time      0.1050
    CORREC:  cpu time      0.3714: real time      0.3717
    CHARGE:  cpu time      0.0436: real time      0.0438
    --------------------------------------------
      LOOP:  cpu time      0.8339: real time      0.8504

 eigenvalue-minimisations  :     0
 total energy-change (2. order) :-0.1981853E-02  (-0.6142686E-03)
 number of electron      30.0000000 magnetization 
 augmentation part       -0.1270718 magnetization 

 Free energy of the ion-electron system (eV)
  ---------------------------------------------------
  alpha Z        PSCENC =         0.26191385
  Ewald energy   TEWEN  =      2086.81657480
  -Hartree energ DENC   =     -3111.26485201
  -exchange      EXHF   =         0.00000000
  -V(xc)+E(xc)   XCENC  =        82.87910004
  PAW double counting   =     13014.36481730   -12995.25766127
  entropy T*S    EENTRO =        -0.00000000
  eigenvalues    EBANDS =      -412.39100124
  atomic energy  EATOM  =      1272.54359529
  ---------------------------------------------------
  free energy    TOTEN  =       -62.04751326 eV

  energy without entropy =      -62.04751326  energy(sigma->0) =      -62.04751326


--------------------------------------------------------------------------------------------------------




--------------------------------------- Iteration      1(  14)  ---------------------------------------


    POTLOK:  cpu time      0.2934: real time      0.2940
    SETDIJ:  cpu time      0.0019: real time      0.0019
    TRIAL :  cpu time      0.1036: real time      0.1036
    CORREC:  cpu time      0.3657: real time      0.3659
    CHARGE:  cpu time      0.0429: real time      0.0431
    --------------------------------------------
      LOOP:  cpu time      0.8236: real time      0.8381

 eigenvalue-minimisations  :     0
 total energy-change (2. order) :-0.6130103E-03  (-0.2181961E-03)
 number of electron      30.0000000 magnetization 
 augmentation part       -0.1270084 magnetization 

 Free energy of the ion-electron system (eV)
  ---------------------------------------------------
  alpha Z        PSCENC =         0.26191385
  Ewald energy   TEWEN  =      2086.81657480
  -Hartree energ DENC   =     -3111.28311692
  -exchange      EXHF   =         0.00000000
  -V(xc)+E(xc)   XCENC  =        82.87889240
  PAW double counting   =     13029.49152513   -13010.38484826
  entropy T*S    EENTRO =        -0.00000000
  eigenvalues    EBANDS =      -412.37266255
  atomic energy  EATOM  =      1272.54359529
  ---------------------------------------------------
  free energy    TOTEN  =       -62.04812627 eV

  energy without entropy =      -62.04812627  energy(sigma->0) =      -62.04812627


--------------------------------------------------------------------------------------------------------




--------------------------------------- Iteration      1(  15)  ---------------------------------------


    POTLOK:  cpu time      0.2926: real time      0.2926
    SETDIJ:  cpu time      0.0019: real time      0.0019
    TRIAL :  cpu time      0.1042: real time      0.1045
    CORREC:  cpu time      0.3687: real time      0.3689
    CHARGE:  cpu time      0.0426: real time      0.0428
    --------------------------------------------
      LOOP:  cpu time      0.8404: real time      0.8413

 eigenvalue-minimisations  :     0
 total energy-change (2. order) :-0.2181365E-03  (-0.8888355E-04)
 number of electron      30.0000000 magnetization 
 augmentation part       -0.1269208 magnetization 

 Free energy of the ion-electron system (eV)
  ---------------------------------------------------
  alpha Z        PSCENC =         0.26191385
  Ewald energy   TEWEN  =      2086.81657480
  -Hartree energ DENC   =     -3111.34373607
  -exchange      EXHF   =         0.00000000
  -V(xc)+E(xc)   XCENC  =        82.88025304
  PAW double counting   =     13039.38215251   -13020.27554279
  entropy T*S    EENTRO =        -0.00000000
  eigenvalues    EBANDS =      -412.31355503
  atomic energy  EATOM  =      1272.54359529
  ---------------------------------------------------
  free energy    TOTEN  =       -62.04834440 eV

  energy without entropy =      -62.04834440  energy(sigma->0) =      -62.04834440


--------------------------------------------------------------------------------------------------------




--------------------------------------- Iteration      1(  16)  ---------------------------------------


    POTLOK:  cpu time      0.2913: real time      0.2913
    SETDIJ:  cpu time      0.0019: real time      0.0019
    TRIAL :  cpu time      0.1046: real time      0.1046
    CORREC:  cpu time      0.3658: real time      0.3666
    CHARGE:  cpu time      0.0436: real time      0.0437
    --------------------------------------------
      LOOP:  cpu time      0.8211: real time      0.8385

 eigenvalue-minimisations  :     0
 total energy-change (2. order) :-0.8932459E-04  (-0.3310933E-04)
 number of electron      30.0000000 magnetization 
 augmentation part       -0.1268489 magnetization 

 Free energy of the ion-electron system (eV)
  ---------------------------------------------------
  alpha Z        PSCENC =         0.26191385
  Ewald energy   TEWEN  =      2086.81657480
  -Hartree energ DENC   =     -3111.34848139
  -exchange      EXHF   =         0.00000000
  -V(xc)+E(xc)   XCENC  =        82.87991709
  PAW double counting   =     13040.08134615   -13020.97468937
  entropy T*S    EENTRO =        -0.00000000
  eigenvalues    EBANDS =      -412.30861014
  atomic energy  EATOM  =      1272.54359529
  ---------------------------------------------------
  free energy    TOTEN  =       -62.04843373 eV

  energy without entropy =      -62.04843373  energy(sigma->0) =      -62.04843373


--------------------------------------------------------------------------------------------------------




--------------------------------------- Iteration      1(  17)  ---------------------------------------


    POTLOK:  cpu time      0.2912: real time      0.2913
    SETDIJ:  cpu time      0.0017: real time      0.0017
    TRIAL :  cpu time      0.1046: real time      0.1046
    CORREC:  cpu time      0.3623: real time      0.3629
    CHARGE:  cpu time      0.0430: real time      0.0431
    --------------------------------------------
      LOOP:  cpu time      0.8193: real time      0.8345

 eigenvalue-minimisations  :     0
 total energy-change (2. order) :-0.3335023E-04  (-0.1072650E-04)
 number of electron      30.0000000 magnetization 
 augmentation part       -0.1268144 magnetization 

 Free energy of the ion-electron system (eV)
  ---------------------------------------------------
  alpha Z        PSCENC =         0.26191385
  Ewald energy   TEWEN  =      2086.81657480
  -Hartree energ DENC   =     -3111.38646826
  -exchange      EXHF   =         0.00000000
  -V(xc)+E(xc)   XCENC  =        82.88133572
  PAW double counting   =     13036.27294948   -13017.16648220
  entropy T*S    EENTRO =        -0.00000000
  eigenvalues    EBANDS =      -412.27188576
  atomic energy  EATOM  =      1272.54359529
  ---------------------------------------------------
  free energy    TOTEN  =       -62.04846708 eV

  energy without entropy =      -62.04846708  energy(sigma->0) =      -62.04846708


--------------------------------------------------------------------------------------------------------




--------------------------------------- Iteration      1(  18)  ---------------------------------------


    POTLOK:  cpu time      0.2899: real time      0.2900
    SETDIJ:  cpu time      0.0018: real time      0.0018
    TRIAL :  cpu time      0.1041: real time      0.1041
    CORREC:  cpu time      0.3640: real time      0.3642
    CHARGE:  cpu time      0.0430: real time      0.0431
    --------------------------------------------
      LOOP:  cpu time      0.8329: real time      0.8338

 eigenvalue-minimisations  :     0
 total energy-change (2. order) :-0.1083298E-04  (-0.3196726E-05)
 number of electron      30.0000000 magnetization 
 augmentation part       -0.1268004 magnetization 

 Free energy of the ion-electron system (eV)
  ---------------------------------------------------
  alpha Z        PSCENC =         0.26191385
  Ewald energy   TEWEN  =      2086.81657480
  -Hartree energ DENC   =     -3111.38629398
  -exchange      EXHF   =         0.00000000
  -V(xc)+E(xc)   XCENC  =        82.88143472
  PAW double counting   =     13034.34621642   -13015.23977121
  entropy T*S    EENTRO =        -0.00000000
  eigenvalues    EBANDS =      -412.27214780
  atomic energy  EATOM  =      1272.54359529
  ---------------------------------------------------
  free energy    TOTEN  =       -62.04847791 eV

  energy without entropy =      -62.04847791  energy(sigma->0) =      -62.04847791


--------------------------------------------------------------------------------------------------------




--------------------------------------- Iteration      1(  19)  ---------------------------------------


    POTLOK:  cpu time      0.2903: real time      0.2907
    SETDIJ:  cpu time      0.0018: real time      0.0018
    TRIAL :  cpu time      0.1042: real time      0.1042
    CORREC:  cpu time      0.3653: real time      0.3655
    CHARGE:  cpu time      0.0429: real time      0.0430
    --------------------------------------------
      LOOP:  cpu time      0.8203: real time      0.8359

 eigenvalue-minimisations  :     0
 total energy-change (2. order) :-0.3228937E-05  (-0.9385203E-06)
 number of electron      30.0000000 magnetization 
 augmentation part       -0.1267952 magnetization 

 Free energy of the ion-electron system (eV)
  ---------------------------------------------------
  alpha Z        PSCENC =         0.26191385
  Ewald energy   TEWEN  =      2086.81657480
  -Hartree energ DENC   =     -3111.39032465
  -exchange      EXHF   =         0.00000000
  -V(xc)+E(xc)   XCENC  =        82.88162408
  PAW double counting   =     13034.32277968   -13015.21633810
  entropy T*S    EENTRO =        -0.00000000
  eigenvalues    EBANDS =      -412.26830609
  atomic energy  EATOM  =      1272.54359529
  ---------------------------------------------------
  free energy    TOTEN  =       -62.04848114 eV

  energy without entropy =      -62.04848114  energy(sigma->0) =      -62.04848114


--------------------------------------------------------------------------------------------------------




--------------------------------------- Iteration      1(  20)  ---------------------------------------


    POTLOK:  cpu time      0.2896: real time      0.2899
    SETDIJ:  cpu time      0.0018: real time      0.0018
    TRIAL :  cpu time      0.1043: real time      0.1043
    CORREC:  cpu time      0.3672: real time      0.3674
    CHARGE:  cpu time      0.0429: real time      0.0430
    --------------------------------------------
      LOOP:  cpu time      0.8192: real time      0.8375

 eigenvalue-minimisations  :     0
 total energy-change (2. order) :-0.9483556E-06  (-0.3142996E-06)
 number of electron      30.0000000 magnetization 
 augmentation part       -0.1267921 magnetization 

 Free energy of the ion-electron system (eV)
  ---------------------------------------------------
  alpha Z        PSCENC =         0.26191385
  Ewald energy   TEWEN  =      2086.81657480
  -Hartree energ DENC   =     -3111.39185693
  -exchange      EXHF   =         0.00000000
  -V(xc)+E(xc)   XCENC  =        82.88171726
  PAW double counting   =     13034.84631064   -13015.73986512
  entropy T*S    EENTRO =        -0.00000000
  eigenvalues    EBANDS =      -412.26687188
  atomic energy  EATOM  =      1272.54359529
  ---------------------------------------------------
  free energy    TOTEN  =       -62.04848209 eV

  energy without entropy =      -62.04848209  energy(sigma->0) =      -62.04848209


--------------------------------------------------------------------------------------------------------




--------------------------------------- Iteration      1(  21)  ---------------------------------------


    POTLOK:  cpu time      0.2898: real time      0.2898
    SETDIJ:  cpu time      0.0018: real time      0.0018
    TRIAL :  cpu time      0.1042: real time      0.1047
    CORREC:  cpu time      0.3638: real time      0.3641
    CHARGE:  cpu time      0.0428: real time      0.0429
    --------------------------------------------
      LOOP:  cpu time      0.8319: real time      0.8329

 eigenvalue-minimisations  :     0
 total energy-change (2. order) :-0.3242385E-06  (-0.1328035E-06)
 number of electron      30.0000000 magnetization 
 augmentation part       -0.1267891 magnetization 

 Free energy of the ion-electron system (eV)
  ---------------------------------------------------
  alpha Z        PSCENC =         0.26191385
  Ewald energy   TEWEN  =      2086.81657480
  -Hartree energ DENC   =     -3111.38908538
  -exchange      EXHF   =         0.00000000
  -V(xc)+E(xc)   XCENC  =        82.88163700
  PAW double counting   =     13035.23533468   -13016.12887939
  entropy T*S    EENTRO =        -0.00000000
  eigenvalues    EBANDS =      -412.26957327
  atomic energy  EATOM  =      1272.54359529
  ---------------------------------------------------
  free energy    TOTEN  =       -62.04848241 eV

  energy without entropy =      -62.04848241  energy(sigma->0) =      -62.04848241


--------------------------------------------------------------------------------------------------------




--------------------------------------- Iteration      1(  22)  ---------------------------------------


    POTLOK:  cpu time      0.2888: real time      0.2888
    SETDIJ:  cpu time      0.0018: real time      0.0018
    TRIAL :  cpu time      0.1044: real time      0.1044
    CORREC:  cpu time      0.3632: real time      0.3636
    CHARGE:  cpu time      0.0432: real time      0.0433
    --------------------------------------------
      LOOP:  cpu time      0.8172: real time      0.8323

 eigenvalue-minimisations  :     0
 total energy-change (2. order) :-0.1376775E-06  (-0.5706577E-07)
 number of electron      30.0000000 magnetization 
 augmentation part       -0.1267878 magnetization 

 Free energy of the ion-electron system (eV)
  ---------------------------------------------------
  alpha Z        PSCENC =         0.26191385
  Ewald energy   TEWEN  =      2086.81657480
  -Hartree energ DENC   =     -3111.38969052
  -exchange      EXHF   =         0.00000000
  -V(xc)+E(xc)   XCENC  =        82.88166229
  PAW double counting   =     13035.37479167   -13016.26834552
  entropy T*S    EENTRO =        -0.00000000
  eigenvalues    EBANDS =      -412.26898441
  atomic energy  EATOM  =      1272.54359529
  ---------------------------------------------------
  free energy    TOTEN  =       -62.04848255 eV

  energy without entropy =      -62.04848255  energy(sigma->0) =      -62.04848255


--------------------------------------------------------------------------------------------------------




--------------------------------------- Iteration      1(  23)  ---------------------------------------


    POTLOK:  cpu time      0.2894: real time      0.2895
    SETDIJ:  cpu time      0.0017: real time      0.0017
    TRIAL :  cpu time      0.1045: real time      0.1045
    CORREC:  cpu time      0.3680: real time      0.3686
    EDDIAG:  cpu time      0.0588: real time      0.0597
    CHARGE:  cpu time      0.0430: real time      0.0431
    --------------------------------------------
      LOOP:  cpu time      0.8791: real time      0.8979

 eigenvalue-minimisations  :     0
 total energy-change (2. order) :-0.5934271E-07  (-0.2528635E-07)
 number of electron      30.0000000 magnetization 
 augmentation part       -0.1267873 magnetization 

 Free energy of the ion-electron system (eV)
  ---------------------------------------------------
  alpha Z        PSCENC =         0.26191385
  Ewald energy   TEWEN  =      2086.81657480
  -Hartree energ DENC   =     -3111.38862546
  -exchange      EXHF   =         0.00000000
  -V(xc)+E(xc)   XCENC  =        82.88162413
  PAW double counting   =     13035.42207973   -13016.31563696
  entropy T*S    EENTRO =        -0.00000000
  eigenvalues    EBANDS =      -412.27000799
  atomic energy  EATOM  =      1272.54359529
  ---------------------------------------------------
  free energy    TOTEN  =       -62.04848261 eV

  energy without entropy =      -62.04848261  energy(sigma->0) =      -62.04848261


--------------------------------------------------------------------------------------------------------


  average scaling for gradient   0.8584


 average (electrostatic) potential at core
  the test charge radii are     0.5770  0.4325  0.5902
  (the norm of the test charge is              1.0000)
       1 -88.4748       2 -88.4748       3 -88.4745       4 -45.8258       5 -45.8257
       6 -45.8264       7-104.2591       8-104.2591       9-104.2588



 E-fermi :  -6.4368     XC(G=0):  -0.1436     alpha+bet : -0.0635

 Fermi energy:        -6.4368466276

 k-point     1 :       0.0000    0.0000    0.0000
  band No.  band energies     occupation 
      1     -25.9725      2.00000
      2     -22.8133      2.00000
      3     -22.8132      2.00000
      4     -17.2852      2.00000
      5     -17.2848      2.00000
      6     -13.8542      2.00000
      7     -13.7822      2.00000
      8     -11.5275      2.00000
      9     -10.7435      2.00000
     10     -10.7427      2.00000
     11      -9.1546      2.00000
     12      -8.5578      2.00000
     13      -8.5576      2.00000
     14      -6.5232      2.00000
     15      -6.5229      2.00000
     16      -2.7235      0.00000
     17      -2.7234      0.00000
     18      -0.4184      0.00000
     19       0.1071      0.00000
     20       0.2892      0.00000


--------------------------------------------------------------------------------------------------------


 soft charge-density along one line, spin component           1
         0         1         2         3         4         5         6         7         8         9
 total charge-density along one line

 pseudopotential strength for first ion, spin component:           1
 12.807  21.553   0.006  -0.000   0.003   0.011  -0.000   0.006
 21.553  36.273   0.011  -0.000   0.005   0.019  -0.000   0.010
  0.006   0.011  -3.212   0.000   0.001  -5.761   0.000   0.001
 -0.000  -0.000   0.000  -3.215   0.000   0.000  -5.765   0.000
  0.003   0.005   0.001   0.000  -3.213   0.001   0.000  -5.763
  0.011   0.019  -5.761   0.000   0.001 -10.309   0.000   0.002
 -0.000  -0.000   0.000  -5.765   0.000   0.000 -10.317   0.000
  0.006   0.010   0.001   0.000  -5.763   0.002   0.000 -10.313
 total augmentation occupancy for first ion, spin component:           1
  7.950  -2.846   1.070  -0.000   0.534  -0.514   0.000  -0.257
 -2.846   1.091  -0.568   0.000  -0.284   0.259  -0.000   0.129
  1.070  -0.568   6.854  -0.000  -0.759  -2.280   0.000   0.373
 -0.000   0.000  -0.000   2.817   0.000   0.000  -0.740  -0.000
  0.534  -0.284  -0.759   0.000   7.989   0.373  -0.000  -2.839
 -0.514   0.259  -2.280   0.000   0.373   0.779  -0.000  -0.171
  0.000  -0.000   0.000  -0.740  -0.000  -0.000   0.198   0.000
 -0.257   0.129   0.373  -0.000  -2.839  -0.171   0.000   1.035


------------------------ aborting loop because EDIFF is reached ----------------------------------------


    FORLOC:  cpu time      0.0183: real time      0.0183
    FORNL :  cpu time      0.0150: real time      0.0151
    FORCOR:  cpu time      0.2532: real time      0.2534
    OFIELD:  cpu time      0.0027: real time      0.0027

  Hirshfeld charges:
            ion         q(e)     
   ------------------------------
      1     C        0.09111435
      2     C        0.09113747
      3     C        0.09110196
      4     H        0.06367930
      5     H        0.06365800
      6     H        0.06364834
      7     N       -0.15476251
      8     N       -0.15480318
      9     N       -0.15477373

  Atomic reference data used in the T-S method for vdW correction:
            C6at              R0at           ALPHAat      REFSTATE
            (au)              (au)            (au)                
   ---------------------------------------------------------------
   C          46.600          3.590         12.000         0
   H           6.500          3.099          4.500         0
   N          24.200          3.345          7.400         0

  Tkatchenko/Scheffler method for vdW energy calculation
  ---------------------------------------------------------------------------------------------

  Parameters of vdW forcefield:
            C6ts              R0ts           ALPHAts        RELVOL
            (au)              (au)            (au)                
   ---------------------------------------------------------------
   C          29.647          3.330          9.571          0.79762231
   C          29.643          3.330          9.571          0.79756758
   C          29.647          3.330          9.571          0.79761916
   H           2.365          2.618          2.714          0.60313204
   H           2.365          2.619          2.715          0.60325185
   H           2.365          2.619          2.715          0.60324743
   N          19.338          3.222          6.615          0.89392444
   N          19.340          3.222          6.615          0.89397045
   N          19.338          3.222          6.615          0.89392351

  vdW correction parametrized for the method pbe       

  IVDW =   2
  VDW_RADIUS =    50.000 A
  VDW_IDAMPF =  0
  VDW_S6 =     1.000
  VDW_SR =     0.940
  VDW_D =    20.000
  LVDW_ONECELL = F F F
  LVDW_SAMETYPE T T T
  LVDW_EWALD = F

  Number of pair interactions contributing to vdW energy:    2277
  Edisp (eV):   -0.03371
    FORVDW:  cpu time      6.3837: real time      6.3866

 VOLUME and BASIS-vectors are now :
 -----------------------------------------------------------------------------
  energy-cutoff  :     1000.00
  volume of cell :    10648.00
      direct lattice vectors                 reciprocal lattice vectors
    22.000000000  0.000000000  0.000000000     0.045454545  0.000000000  0.000000000
     0.000000000 22.000000000  0.000000000     0.000000000  0.045454545  0.000000000
     0.000000000  0.000000000 22.000000000     0.000000000  0.000000000  0.045454545

  length of vectors
    22.000000000 22.000000000 22.000000000     0.045454545  0.045454545  0.045454545


 FORCES acting on ions:
    Electron-Ion                     Ewald-Force                    Non-Local-Force
 -----------------------------------------------------------------------------------------------
   0.989E+02 0.198E+03 -.546E-02   -.101E+03 -.201E+03 0.587E-02   0.180E+01 0.359E+01 -.637E-03
   -.221E+03 -.132E+02 0.387E-01   0.225E+03 0.135E+02 -.391E-01   -.401E+01 -.239E+00 0.262E-02
   0.122E+03 -.185E+03 0.664E-02   -.124E+03 0.188E+03 -.744E-02   0.221E+01 -.335E+01 0.146E-02
   -.860E+02 -.517E+01 0.631E-02   0.921E+02 0.553E+01 -.670E-02   -.599E+01 -.361E+00 0.307E-03
   0.385E+02 0.770E+02 0.504E-02   -.413E+02 -.825E+02 -.520E-02   0.269E+01 0.537E+01 0.529E-03
   0.474E+02 -.719E+02 0.887E-02   -.508E+02 0.770E+02 -.932E-02   0.331E+01 -.501E+01 0.790E-03
   -.162E+03 0.245E+03 0.134E-02   0.183E+03 -.277E+03 -.331E-02   -.209E+02 0.317E+02 0.811E-03
   0.294E+03 0.176E+02 0.344E-01   -.331E+03 -.198E+02 -.412E-01   0.379E+02 0.227E+01 0.634E-02
   -.132E+03 -.263E+03 -.971E-01   0.148E+03 0.297E+03 0.106E+00   -.170E+02 -.340E+02 -.113E-01
 -----------------------------------------------------------------------------------------------
   0.758E-02 0.250E-02 -.123E-02   0.853E-13 0.568E-13 0.000E+00   -.754E-02 -.253E-02 0.861E-03


 POSITION                                       TOTAL-FORCE (eV/Angst)
 -----------------------------------------------------------------------------------
      9.91484      9.91149     10.99987         0.065913      0.124225     -0.000184
     11.78950     11.14894     10.99987        -0.143890     -0.006296      0.002216
      9.78050     12.15370     10.99993         0.079063     -0.118263      0.000676
     12.87815     11.21447     10.99981         0.095240      0.004197     -0.000050
      9.42702      8.93600     10.99979        -0.042431     -0.084244      0.000412
      9.17989     13.06400     10.99980        -0.055125      0.079847      0.000381
     11.25283      9.92324     10.99988         0.080714     -0.117948     -0.001135
      9.12185     10.98907     10.99979        -0.148519     -0.007201     -0.000495
     11.11021     12.30180     11.00021         0.069037      0.125682     -0.001821
 -----------------------------------------------------------------------------------
    total drift:                                0.000038     -0.000031     -0.000373


--------------------------------------------------------------------------------------------------------



  FREE ENERGIE OF THE ION-ELECTRON SYSTEM (eV)
  ---------------------------------------------------
  free  energy   TOTEN  =       -62.08219564 eV

  energy  without entropy=      -62.08219564  energy(sigma->0) =      -62.08219564



--------------------------------------------------------------------------------------------------------


    POTLOK:  cpu time      0.3022: real time      0.3030


--------------------------------------------------------------------------------------------------------


 stress matrix after NEB project (eV)
     -0.02319     -0.00001      0.00000
     -0.00001     -0.02318      0.00000
      0.00000      0.00000     -0.00005
  FORCES: max atom, RMS     0.148694    0.129643
  FORCE total and by dimension    0.388930    0.148519
  Stress total and by dimension    0.032793    0.023192
     LOOP+:  cpu time     23.8190: real time     24.1008
    4ORBIT:  cpu time      0.0000: real time      0.0000

 total amount of memory used by VASP MPI-rank0    61522. kBytes
=======================================================================

   base      :      30000. kBytes
   nonl-proj :       1002. kBytes
   fftplans  :      10395. kBytes
   grid      :      19407. kBytes
   one-center:          1. kBytes
   wavefun   :        717. kBytes

  
  
 General timing and accounting informations for this job:
 ========================================================
  
                  Total CPU time used (sec):       75.231
                            User time (sec):       73.080
                          System time (sec):        2.151
                         Elapsed time (sec):       95.810
  
                   Maximum memory used (kb):      247688.
                   Average memory used (kb):          N/A
  
                          Minor page faults:       150332
                          Major page faults:          293
                 Voluntary context switches:        11507
