 vasp.6.4.1 05Apr23 (build Jun  6 2023 14:46:38) gamma-only                      
 executed on        HPECrayEX_GCC date 2024.08.22  06:24:20
 running  512 mpi-ranks, with    1 threads/rank, on    4 nodes
 distrk:  each k-point on  256 cores,    2 groups
 distr:  one band on NCORE=  32 cores,    8 groups


--------------------------------------------------------------------------------------------------------


 INCAR:
   ALGO = Conjugate
   KPAR = 2
   NCORE = 32
   ISMEAR = 0
   SIGMA = 0.01
   PREC = Accurate
   EDIFF = 1E-7
   ENCUT = 1000
   ISIF = 0
   METAGGA = SCAN
   LASPH = .TRUE.
   SYMPREC = 1E-7
   LWAVE = .FALSE.
   LCHARG = .FALSE.

 POTCAR:    PAW_PBE C_h 06Feb2004                 
 POTCAR:    PAW_PBE H_h 06Feb2004                 
 POTCAR:    PAW_PBE N_h 06Feb2004                 
 POTCAR:    PAW_PBE C_h 06Feb2004                 
   VRHFIN =C: s2p2                                                                                  
   LEXCH  = PE                                                                                      
   EATOM  =   147.1560 eV,   10.8157 Ry                                                             
                                                                                                    
   TITEL  = PAW_PBE C_h 06Feb2004                                                                   
   LULTRA =        F    use ultrasoft PP ?                                                          
   IUNSCR =        1    unscreen: 0-lin 1-nonlin 2-no                                               
   RPACOR =    0.800    partial core radius                                                         
   POMASS =   12.011; ZVAL   =    4.000    mass and valenz                                          
   RCORE  =    1.100    outmost cutoff radius                                                       
   RWIGS  =    1.630; RWIGS  =    0.863    wigner-seitz radius (au A)                               
   ENMAX  =  700.000; ENMIN  =  500.000 eV                                                          
   ICORE  =        2    local potential                                                             
   LCOR   =        T    correct aug charges                                                         
   LPAW   =        T    paw PP                                                                      
   EAUG   =  946.768                                                                                
   DEXC   =    0.000                                                                                
   RMAX   =    1.128    core radius for proj-oper                                                   
   RAUG   =    1.300    factor for augmentation sphere                                              
   RDEP   =    1.162    radius for radial grids                                                     
   RDEPT  =    1.088    core radius for aug-charge                                                  
                                                                                                    
   Atomic configuration                                                                             
    4 entries                                                                                       
     n  l   j            E        occ.                                                              
     1  0  0.50      -273.3789   2.0000                                                             
     2  0  0.50       -13.7508   2.0000                                                             
     2  1  0.50        -5.2854   2.0000                                                             
     3  2  1.50        -5.4423   0.0000                                                             
   Description                                                                                      
     l       E           TYP  RCUT    TYP  RCUT                                                     
     0    -13.7508458     23  1.100                                                                 
     0     -8.2022199     23  1.100                                                                 
     1     -5.2854383     23  1.100                                                                 
     1      1.1560700     23  1.100                                                                 
     2     -5.4423304      7  1.100                                                                 
  local pseudopotential read in
  partial core-charges read in
  partial kinetic energy density read in
  atomic valenz-charges read in
  non local Contribution for L=           0  read in
    real space projection operators read in
  non local Contribution for L=           0  read in
    real space projection operators read in
  non local Contribution for L=           1  read in
    real space projection operators read in
  non local Contribution for L=           1  read in
    real space projection operators read in
    PAW grid and wavefunctions read in

   number of l-projection  operators is LMAX  =           4
   number of lm-projection operators is LMMAX =           8

 POTCAR:    PAW_PBE H_h 06Feb2004                 
   VRHFIN =H: ultrasoft test                                                                        
   LEXCH  = PE                                                                                      
   EATOM  =    12.4884 eV,    0.9179 Ry                                                             
                                                                                                    
   TITEL  = PAW_PBE H_h 06Feb2004                                                                   
   LULTRA =        F    use ultrasoft PP ?                                                          
   IUNSCR =        0    unscreen: 0-lin 1-nonlin 2-no                                               
   RPACOR =    0.000    partial core radius                                                         
   POMASS =    1.000; ZVAL   =    1.000    mass and valenz                                          
   RCORE  =    0.800    outmost cutoff radius                                                       
   RWIGS  =    0.700; RWIGS  =    0.370    wigner-seitz radius (au A)                               
   ENMAX  =  700.000; ENMIN  =  350.000 eV                                                          
   RCLOC  =    0.701    cutoff for local pot                                                        
   LCOR   =        T    correct aug charges                                                         
   LPAW   =        T    paw PP                                                                      
   EAUG   = 1000.000                                                                                
   RMAX   =    0.819    core radius for proj-oper                                                   
   RAUG   =    1.000    factor for augmentation sphere                                              
   RDEP   =    0.817    radius for radial grids                                                     
   RDEPT  =    0.817    core radius for aug-charge                                                  
                                                                                                    
   Atomic configuration                                                                             
    2 entries                                                                                       
     n  l   j            E        occ.                                                              
     1  0  0.50        -6.4927   1.0000                                                             
     2  1  0.50        -3.4015   0.0000                                                             
   Description                                                                                      
     l       E           TYP  RCUT    TYP  RCUT                                                     
     0     -6.4927493     23  0.800                                                                 
     0      6.8029130     23  0.800                                                                 
     1     -6.8029130     23  0.800                                                                 
  local pseudopotential read in
  atomic valenz-charges read in
  non local Contribution for L=           0  read in
    real space projection operators read in
  non local Contribution for L=           0  read in
    real space projection operators read in
  non local Contribution for L=           1  read in
    real space projection operators read in
    PAW grid and wavefunctions read in

   number of l-projection  operators is LMAX  =           3
   number of lm-projection operators is LMMAX =           5

 POTCAR:    PAW_PBE N_h 06Feb2004                 
   VRHFIN =N: s2p3                                                                                  
   LEXCH  = PE                                                                                      
   EATOM  =   264.5486 eV,   19.4438 Ry                                                             
                                                                                                    
   TITEL  = PAW_PBE N_h 06Feb2004                                                                   
   LULTRA =        F    use ultrasoft PP ?                                                          
   IUNSCR =        1    unscreen: 0-lin 1-nonlin 2-no                                               
   RPACOR =    0.800    partial core radius                                                         
   POMASS =   14.001; ZVAL   =    5.000    mass and valenz                                          
   RCORE  =    1.100    outmost cutoff radius                                                       
   RWIGS  =    1.480; RWIGS  =    0.783    wigner-seitz radius (au A)                               
   ENMAX  =  700.000; ENMIN  =  500.000 eV                                                          
   ICORE  =        2    local potential                                                             
   LCOR   =        T    correct aug charges                                                         
   LPAW   =        T    paw PP                                                                      
   EAUG   =  904.640                                                                                
   DEXC   =    0.000                                                                                
   RMAX   =    1.127    core radius for proj-oper                                                   
   RAUG   =    1.300    factor for augmentation sphere                                              
   RDEP   =    1.115    radius for radial grids                                                     
   RDEPT  =    1.106    core radius for aug-charge                                                  
                                                                                                    
   Atomic configuration                                                                             
    4 entries                                                                                       
     n  l   j            E        occ.                                                              
     1  0  0.50      -384.7179   2.0000                                                             
     2  0  0.50       -18.5828   2.0000                                                             
     2  1  0.50        -7.0898   3.0000                                                             
     3  2  1.50        -6.8029   0.0000                                                             
   Description                                                                                      
     l       E           TYP  RCUT    TYP  RCUT                                                     
     0    -18.5828117     23  1.100                                                                 
     0    -15.0750597     23  1.100                                                                 
     1     -7.0897851     23  1.100                                                                 
     1     -1.9663412     23  1.100                                                                 
     2     -6.8029130      7  1.100                                                                 
  local pseudopotential read in
  partial core-charges read in
  partial kinetic energy density read in
  kinetic energy density of atom read in
  atomic valenz-charges read in
  non local Contribution for L=           0  read in
    real space projection operators read in
  non local Contribution for L=           0  read in
    real space projection operators read in
  non local Contribution for L=           1  read in
    real space projection operators read in
  non local Contribution for L=           1  read in
    real space projection operators read in
    PAW grid and wavefunctions read in

   number of l-projection  operators is LMAX  =           4
   number of lm-projection operators is LMMAX =           8

  PAW_PBE C_h 06Feb2004                 :
 energy of atom  1       EATOM= -147.1560
 kinetic energy error for atom=    0.0031 (will be added to EATOM!!)
  PAW_PBE H_h 06Feb2004                 :
 energy of atom  2       EATOM=  -12.4884
 kinetic energy error for atom=    0.0006 (will be added to EATOM!!)
  PAW_PBE N_h 06Feb2004                 :
 energy of atom  3       EATOM= -264.5486
 kinetic energy error for atom=    0.0081 (will be added to EATOM!!)


 POSCAR:  C  H  N
  positions in cartesian coordinates
  No initial velocities read in

 METAGGA = SCAN                                        LMAXTAU =  6    LMIXTAU =  F

 exchange correlation table for  LEXCH =        8
   RHO(1)=    0.500       N(1)  =     2000
   RHO(2)=  100.500       N(2)  =     4000

 VTST: version 4.1, (05/19/21)

 CHAIN: initializing optimizer
 
 OPT: Using VASP Dynamics algorithm
 CHAIN: Read ICHAIN            0

 POSCAR:  C  H  N
  positions in cartesian coordinates
  No initial velocities read in



--------------------------------------------------------------------------------------------------------


 ion  position               nearest neighbor table
   1  0.451  0.451  0.500-   5 1.09   8 1.34   7 1.34
   2  0.536  0.507  0.500-   4 1.09   7 1.34   9 1.34
   3  0.445  0.552  0.500-   6 1.09   9 1.34   8 1.34
   4  0.585  0.510  0.500-   2 1.09
   5  0.429  0.406  0.500-   1 1.09
   6  0.417  0.594  0.500-   3 1.09
   7  0.511  0.451  0.500-   2 1.34   1 1.34
   8  0.415  0.500  0.500-   1 1.34   3 1.34
   9  0.505  0.559  0.500-   3 1.34   2 1.34

  LATTYP: Found a simple cubic cell.
 ALAT       =    22.0000000000
  
  Lattice vectors:
  
 A1 = (  22.0000000000,   0.0000000000,   0.0000000000)
 A2 = (   0.0000000000,  22.0000000000,   0.0000000000)
 A3 = (   0.0000000000,   0.0000000000,  22.0000000000)


Analysis of symmetry for initial positions (statically):
=====================================================================
 Subroutine PRICEL returns:
 Original cell was already a primitive cell.
 

 Routine SETGRP: Setting up the symmetry group for a 
 simple cubic supercell.


 Subroutine GETGRP returns: Found  1 space group operations
 (whereof  1 operations were pure point group operations)
 out of a pool of 48 trial point group operations.


The static configuration has the point symmetry C_1 .


Analysis of symmetry for dynamics (positions and initial velocities):
=====================================================================
 Subroutine PRICEL returns:
 Original cell was already a primitive cell.
 

 Routine SETGRP: Setting up the symmetry group for a 
 simple cubic supercell.


 Subroutine GETGRP returns: Found  1 space group operations
 (whereof  1 operations were pure point group operations)
 out of a pool of 48 trial point group operations.


The dynamic configuration has the point symmetry C_1 .


 Subroutine INISYM returns: Found  1 space group operations
 (whereof  1 operations are pure point group operations),
 and found     1 'primitive' translations


----------------------------------------------------------------------------------------

                                     Primitive cell                                     

  volume of cell :   10648.0000

  direct lattice vectors                    reciprocal lattice vectors
    22.000000000  0.000000000  0.000000000     0.045454545  0.000000000  0.000000000
     0.000000000 22.000000000  0.000000000     0.000000000  0.045454545  0.000000000
     0.000000000  0.000000000 22.000000000     0.000000000  0.000000000  0.045454545

  length of vectors
    22.000000000 22.000000000 22.000000000     0.045454545  0.045454545  0.045454545

  position of ions in fractional coordinates (direct lattice)
     0.450674545  0.450522045  0.499994091
     0.535886364  0.506769773  0.499994091
     0.444568182  0.552441136  0.499996818
     0.585370455  0.509748409  0.499991364
     0.428500909  0.406182045  0.499990455
     0.417267727  0.593817955  0.499990909
     0.511492273  0.451056591  0.499994545
     0.414629545  0.499502955  0.499990455
     0.505009545  0.559172500  0.500009545

  ion indices of the primitive-cell ions
   primitive index   ion index
                 1           1
                 2           2
                 3           3
                 4           4
                 5           5
                 6           6
                 7           7
                 8           8
                 9           9

----------------------------------------------------------------------------------------



 KPOINTS: auto                                    

Automatic generation of k-mesh.
 Grid dimensions read from file:
 generate k-points for:    1    1    1

 Generating k-lattice:

  Cartesian coordinates                     Fractional coordinates (reciprocal lattice)
     0.045454545  0.000000000  0.000000000     1.000000000  0.000000000  0.000000000
     0.000000000  0.045454545  0.000000000     0.000000000  1.000000000  0.000000000
     0.000000000  0.000000000  0.045454545     0.000000000  0.000000000  1.000000000

  Length of vectors
     0.045454545  0.045454545  0.045454545

  Shift w.r.t. Gamma in fractional coordinates (k-lattice)
     0.000000000  0.000000000  0.000000000

 
 Subroutine IBZKPT returns following result:
 ===========================================
 
 Found      1 irreducible k-points:
 
 Following reciprocal coordinates:
            Coordinates               Weight
  0.000000  0.000000  0.000000      1.000000
 
 Following cartesian coordinates:
            Coordinates               Weight
  0.000000  0.000000  0.000000      1.000000
 


--------------------------------------------------------------------------------------------------------




 Dimension of arrays:
   k-points           NKPTS =      1   k-points in BZ     NKDIM =      1   number of bands    NBANDS=     24
   number of dos      NEDOS =    301   number of ions     NIONS =      9
   non local maximal  LDIM  =      4   non local SUM 2l+1 LMDIM =      8
   total plane-waves  NPLWV = ******
   max r-space proj   IRMAX =      1   max aug-charges    IRDMAX=   9419
   dimension x,y,z NGX =   240 NGY =  240 NGZ =  240
   dimension x,y,z NGXF=   480 NGYF=  480 NGZF=  480
   support grid    NGXF=   480 NGYF=  480 NGZF=  480
   ions per type =               3   3   3
   NGX,Y,Z   is equivalent  to a cutoff of  18.14, 18.14, 18.14 a.u.
   NGXF,Y,Z  is equivalent  to a cutoff of  36.27, 36.27, 36.27 a.u.

 SYSTEM =  unknown system                          
 POSCAR =   C  H  N                                

 Startparameter for this run:
   NWRITE =      2    write-flag & timer
   PREC   = accura    normal or accurate (medium, high low for compatibility)
   ISTART =      0    job   : 0-new  1-cont  2-samecut
   ICHARG =      2    charge: 1-file 2-atom 10-const
   ISPIN  =      1    spin polarized calculation?
   LNONCOLLINEAR =      F non collinear calculations
   LSORBIT =      F    spin-orbit coupling
   INIWAV =      1    electr: 0-lowe 1-rand  2-diag
   LASPH  =      T    aspherical Exc in radial PAW
 Electronic Relaxation 1
   ENCUT  = 1000.0 eV  73.50 Ry    8.57 a.u.  56.73 56.73 56.73*2*pi/ulx,y,z
   ENINI  = 1000.0     initial cutoff
   ENAUG  = 1000.0 eV  augmentation charge cutoff
   NELM   =     60;   NELMIN=  2; NELMDL= -5     # of ELM steps 
   EDIFF  = 0.1E-06   stopping-criterion for ELM
   LREAL  =      F    real-space projection
   NLSPLINE    = F    spline interpolate recip. space projectors
   LCOMPAT=      F    compatible to vasp.4.4
   GGA_COMPAT  = T    GGA compatible to vasp.4.4-vasp.4.6
   LMAXPAW     = -100 max onsite density
   LMAXMIX     =    2 max onsite mixed and CHGCAR
   VOSKOWN=      0    Vosko Wilk Nusair interpolation
   ROPT   =    0.00000   0.00000   0.00000
 Ionic relaxation
   EDIFFG = 0.1E-05   stopping-criterion for IOM
   NSW    =      0    number of steps for IOM
   NBLOCK =      1;   KBLOCK =      1    inner block; outer block 
   IBRION =     -1    ionic relax: 0-MD 1-quasi-New 2-CG
   NFREE  =      0    steps in history (QN), initial steepest desc. (CG)
   ISIF   =      0    stress and relaxation
   IWAVPR =     10    prediction:  0-non 1-charg 2-wave 3-comb
   ISYM   =      2    0-nonsym 1-usesym 2-fastsym
   LCORR  =      T    Harris-Foulkes like correction to forces

   POTIM  = 0.5000    time-step for ionic-motion
   TEIN   =    0.0    initial temperature
   TEBEG  =    0.0;   TEEND  =   0.0 temperature during run
   SMASS  =  -3.00    Nose mass-parameter (am)
   estimated Nose-frequenzy (Omega)   =  0.10E-29 period in steps = 0.13E+47 mass=  -0.111E-25a.u.
   SCALEE = 1.0000    scale energy and forces
   NPACO  =    256;   APACO  = 10.0  distance and # of slots for P.C.
   PSTRESS=    0.0 pullay stress

  Mass of Ions in am
   POMASS =  12.01  1.00 14.00
  Ionic Valenz
   ZVAL   =   4.00  1.00  5.00
  Atomic Wigner-Seitz radii
   RWIGS  =  -1.00 -1.00 -1.00
  virtual crystal weights 
   VCA    =   1.00  1.00  1.00
   NELECT =      30.0000    total number of electrons
   NUPDOWN=      -1.0000    fix difference up-down

 DOS related values:
   EMIN   =  10.00;   EMAX   =-10.00  energy-range for DOS
   EFERMI =   0.00;   METHOD = LEGACY      
   ISMEAR =     0;   SIGMA  =   0.01  broadening in eV -4-tet -1-fermi 0-gaus

 Electronic relaxation 2 (details)
   IALGO  =     58    algorithm
   LDIAG  =      T    sub-space diagonalisation (order eigenvalues)
   LSUBROT=      F    optimize rotation matrix (better conditioning)
   TURBO    =      0    0=normal 1=particle mesh
   IRESTART =      0    0=no restart 2=restart with 2 vectors
   NREBOOT  =      0    no. of reboots
   NMIN     =      0    reboot dimension
   EREF     =   0.00    reference energy to select bands
   IMIX   =      4    mixing-type and parameters
     AMIX     =   0.40;   BMIX     =  1.00
     AMIX_MAG =   1.60;   BMIX_MAG =  1.00
     AMIN     =   0.10
     WC   =   100.;   INIMIX=   1;  MIXPRE=   1;  MAXMIX= -45

 Intra band minimization:
   WEIMIN = 0.0000     energy-eigenvalue tresh-hold
   EBREAK =  0.10E-08  absolut break condition
   DEPER  =   0.30     relativ break condition  

   TIME   =   0.40     timestep for ELM

  volume/ion in A,a.u.               =    1183.11      7984.03
  Fermi-wavevector in a.u.,A,eV,Ry     =   0.231220  0.436943  0.727406  0.053463
  Thomas-Fermi vector in A             =   1.025338

 Write flags
   LWAVE        =      F    write WAVECAR
   LDOWNSAMPLE  =      F    k-point downsampling of WAVECAR
   LCHARG       =      F    write CHGCAR
   LVTOT        =      F    write LOCPOT, total local potential
   LVHAR        =      F    write LOCPOT, Hartree potential only
   LELF         =      F    write electronic localiz. function (ELF)
   LORBIT       =      0    0 simple, 1 ext, 2 COOP (PROOUT), +10 PAW based schemes


 Dipole corrections
   LMONO  =      F    monopole corrections only (constant potential shift)
   LDIPOL =      F    correct potential (dipole corrections)
   IDIPOL =      0    1-x, 2-y, 3-z, 4-all directions 
   EPSILON=  1.0000000 bulk dielectric constant

 Exchange correlation treatment:
   GGA     =    --    GGA type
   LEXCH   =     8    internal setting for exchange type
   LIBXC   =     F    Libxc                    
   VOSKOWN =     0    Vosko Wilk Nusair interpolation
   LHFCALC =     F    Hartree Fock is set to
   LHFONE  =     F    Hartree Fock one center treatment
   AEXX    =    0.0000 exact exchange contribution

 Linear response parameters
   LEPSILON=     F    determine dielectric tensor
   LRPA    =     F    only Hartree local field effects (RPA)
   LNABLA  =     F    use nabla operator in PAW spheres
   LVEL    =     F    velocity operator in full k-point grid
   CSHIFT  =0.1000    complex shift for real part using Kramers Kronig
   OMEGAMAX=  -1.0    maximum frequency
   DEG_THRESHOLD= 0.2000000E-02 threshold for treating states as degnerate
   RTIME   =   -0.100 relaxation time in fs
  (WPLASMAI=    0.000 imaginary part of plasma frequency in eV, 0.658/RTIME)
   DFIELD  = 0.0000000 0.0000000 0.0000000 field for delta impulse in time

  Optional k-point grid parameters
   LKPOINTS_OPT  =     F    use optional k-point grid
   KPOINTS_OPT_MODE=     1    mode for optional k-point grid

 Orbital magnetization related:
   ORBITALMAG=     F  switch on orbital magnetization
   LCHIMAG   =     F  perturbation theory with respect to B field
   DQ        =  0.001000  dq finite difference perturbation B field
   LLRAUG    =     F  two centre corrections for induced B field
   LBONE     =     F  B-component reconstruction in AE one-centre
   LVGVCALC  =     T  calculate vGv susceptibility
   LVGVAPPL  =     F  apply vGv susceptibility instead of pGv for G=0

 Random number generation:
   RANDOM_GENERATOR = DEFAULT
   PCG_SEED         = not used


--------------------------------------------------------------------------------------------------------


 Static calculation
 charge density and potential will be updated during run
 non-spin polarized calculation
 Conjugate gradient for all bands (Freysoldt, et al. PRB 79, 241103 (2009))
 preconditioned conjugated gradient                                        
 perform sub-space diagonalisation
    before iterative eigenvector-optimisation
 modified Broyden-mixing scheme, WC =      100.0
 initial mixing is a Kerker type mixing with AMIX =  0.4000 and BMIX =      1.0000
 Hartree-type preconditioning will be used
 using additional bands            9
 reciprocal scheme for non local part
 use partial core corrections
 no Harris-corrections to forces 
 use gradient corrections 
 use of overlap-Matrix (Vanderbilt PP)
 Gauss-broadening in eV      SIGMA  =   0.01


--------------------------------------------------------------------------------------------------------


  energy-cutoff  :     1000.00
  volume of cell :    10648.00
      direct lattice vectors                 reciprocal lattice vectors
    22.000000000  0.000000000  0.000000000     0.045454545  0.000000000  0.000000000
     0.000000000 22.000000000  0.000000000     0.000000000  0.045454545  0.000000000
     0.000000000  0.000000000 22.000000000     0.000000000  0.000000000  0.045454545

  length of vectors
    22.000000000 22.000000000 22.000000000     0.045454545  0.045454545  0.045454545



 k-points in units of 2pi/SCALE and weight: auto                                    
   0.00000000  0.00000000  0.00000000       1.000

 k-points in reciprocal lattice and weights: auto                                    
   0.00000000  0.00000000  0.00000000       1.000

 position of ions in fractional coordinates (direct lattice) 
   0.45067455  0.45052205  0.49999409
   0.53588636  0.50676977  0.49999409
   0.44456818  0.55244114  0.49999682
   0.58537045  0.50974841  0.49999136
   0.42850091  0.40618205  0.49999045
   0.41726773  0.59381795  0.49999091
   0.51149227  0.45105659  0.49999455
   0.41462955  0.49950295  0.49999045
   0.50500955  0.55917250  0.50000955

 position of ions in cartesian coordinates  (Angst):
   9.91484000  9.91148500 10.99987000
  11.78950000 11.14893500 10.99987000
   9.78050000 12.15370500 10.99993000
  12.87815000 11.21446500 10.99981000
   9.42702000  8.93600500 10.99979000
   9.17989000 13.06399500 10.99980000
  11.25283000  9.92324500 10.99988000
   9.12185000 10.98906500 10.99979000
  11.11021000 12.30179500 11.00021000



--------------------------------------------------------------------------------------------------------


 use parallel FFT for orbitals z direction half grid
 k-point   1 :   0.0000 0.0000 0.0000  plane waves:  381993

 maximum and minimum number of plane-waves per node :     11948    11928

 maximum number of plane-waves:    381993
 maximum index in each direction: 
   IXMAX=   56   IYMAX=   56   IZMAX=   56
   IXMIN=  -56   IYMIN=  -56   IZMIN=    0


 parallel 3D FFT for wavefunctions:
    minimum data exchange during FFTs selected (reduces bandwidth)
 parallel 3D FFT for charge:
    minimum data exchange during FFTs selected (reduces bandwidth)


 total amount of memory used by VASP MPI-rank0   127103. kBytes
=======================================================================

   base      :      30000. kBytes
   nonl-proj :       4010. kBytes
   fftplans  :      24880. kBytes
   grid      :      66493. kBytes
   one-center:          1. kBytes
   wavefun   :       1719. kBytes

     INWAV:  cpu time      0.0001: real time      0.0004
 Broyden mixing: mesh for mixing (old mesh)
   NGX =113   NGY =113   NGZ =113
  (NGX  =480   NGY  =480   NGZ  =480)
  gives a total of ****** points

 initial charge density was supplied:
 charge density of overlapping atoms calculated
 number of electron      30.0000000 magnetization 
 keeping initial charge density in first step


--------------------------------------------------------------------------------------------------------


 Maximum index for augmentation-charges          493 (set IRDMAX)


--------------------------------------------------------------------------------------------------------


 First call to EWALD:  gamma=   0.081
 Maximum number of real-space cells 3x 3x 3
 Maximum number of reciprocal cells 3x 3x 3

    FEWALD:  cpu time      0.0020: real time      0.0020


--------------------------------------- Ionic step        1  -------------------------------------------




--------------------------------------- Iteration      1(   1)  ---------------------------------------


    POTLOK:  cpu time      1.6221: real time      1.6238
    SETDIJ:  cpu time      0.3789: real time      0.3791
    TRIAL :  cpu time      3.1030: real time      3.1060
    CORREC:  cpu time      0.0033: real time      0.0033
    --------------------------------------------
      LOOP:  cpu time      5.1161: real time      5.1211

 eigenvalue-minimisations  :    64
 total energy-change (2. order) : 0.2704366E+03  (-0.7756251E+03)
 number of electron      30.0000000 magnetization 
 augmentation part       30.0000000 magnetization 

 Free energy of the ion-electron system (eV)
  ---------------------------------------------------
  alpha Z        PSCENC =         0.26191385
  Ewald energy   TEWEN  =      2086.81657480
  -Hartree energ DENC   =     -2998.78842140
  -exchange      EXHF   =         0.00000000
  -V(xc)+E(xc)   XCENC  =       102.21187770
  PAW double counting   =       943.34848652     -937.28076607
  entropy T*S    EENTRO =        -0.00000950
  eigenvalues    EBANDS =      -198.67666515
  atomic energy  EATOM  =      1272.54359529
  ---------------------------------------------------
  free energy    TOTEN  =       270.43658604 eV

  energy without entropy =      270.43659555  energy(sigma->0) =      270.43659079


--------------------------------------------------------------------------------------------------------




--------------------------------------- Iteration      1(   2)  ---------------------------------------


    TRIAL :  cpu time      3.3098: real time      3.3114
    CORREC:  cpu time      0.0005: real time      0.0005
    --------------------------------------------
      LOOP:  cpu time      3.3234: real time      3.3418

 eigenvalue-minimisations  :    72
 total energy-change (2. order) :-0.1360190E+03  (-0.1329431E+03)
 number of electron      30.0000000 magnetization 
 augmentation part       30.0000000 magnetization 

 Free energy of the ion-electron system (eV)
  ---------------------------------------------------
  alpha Z        PSCENC =         0.26191385
  Ewald energy   TEWEN  =      2086.81657480
  -Hartree energ DENC   =     -2998.78842140
  -exchange      EXHF   =         0.00000000
  -V(xc)+E(xc)   XCENC  =       102.21187770
  PAW double counting   =       943.34848652     -937.28076607
  entropy T*S    EENTRO =        -0.00004227
  eigenvalues    EBANDS =      -334.69565205
  atomic energy  EATOM  =      1272.54359529
  ---------------------------------------------------
  free energy    TOTEN  =       134.41756637 eV

  energy without entropy =      134.41760864  energy(sigma->0) =      134.41758751


--------------------------------------------------------------------------------------------------------




--------------------------------------- Iteration      1(   3)  ---------------------------------------


    TRIAL :  cpu time      3.5283: real time      3.5302
    CORREC:  cpu time      0.0002: real time      0.0002
    --------------------------------------------
      LOOP:  cpu time      3.5444: real time      3.5604

 eigenvalue-minimisations  :    80
 total energy-change (2. order) :-0.1514903E+03  (-0.1471211E+03)
 number of electron      30.0000000 magnetization 
 augmentation part       30.0000000 magnetization 

 Free energy of the ion-electron system (eV)
  ---------------------------------------------------
  alpha Z        PSCENC =         0.26191385
  Ewald energy   TEWEN  =      2086.81657480
  -Hartree energ DENC   =     -2998.78842140
  -exchange      EXHF   =         0.00000000
  -V(xc)+E(xc)   XCENC  =       102.21187770
  PAW double counting   =       943.34848652     -937.28076607
  entropy T*S    EENTRO =        -0.00000000
  eigenvalues    EBANDS =      -486.18599728
  atomic energy  EATOM  =      1272.54359529
  ---------------------------------------------------
  free energy    TOTEN  =       -17.07273659 eV

  energy without entropy =      -17.07273659  energy(sigma->0) =      -17.07273659


--------------------------------------------------------------------------------------------------------




--------------------------------------- Iteration      1(   4)  ---------------------------------------


    TRIAL :  cpu time      3.0758: real time      3.0772
    CORREC:  cpu time      0.0001: real time      0.0001
    --------------------------------------------
      LOOP:  cpu time      3.0901: real time      3.1075

 eigenvalue-minimisations  :    64
 total energy-change (2. order) :-0.5864592E+02  (-0.5838895E+02)
 number of electron      30.0000000 magnetization 
 augmentation part       30.0000000 magnetization 

 Free energy of the ion-electron system (eV)
  ---------------------------------------------------
  alpha Z        PSCENC =         0.26191385
  Ewald energy   TEWEN  =      2086.81657480
  -Hartree energ DENC   =     -2998.78842140
  -exchange      EXHF   =         0.00000000
  -V(xc)+E(xc)   XCENC  =       102.21187770
  PAW double counting   =       943.34848652     -937.28076607
  entropy T*S    EENTRO =        -0.00000000
  eigenvalues    EBANDS =      -544.83192152
  atomic energy  EATOM  =      1272.54359529
  ---------------------------------------------------
  free energy    TOTEN  =       -75.71866082 eV

  energy without entropy =      -75.71866082  energy(sigma->0) =      -75.71866082


--------------------------------------------------------------------------------------------------------




--------------------------------------- Iteration      1(   5)  ---------------------------------------


    TRIAL :  cpu time      3.2977: real time      3.2993
    CORREC:  cpu time      0.0002: real time      0.0002
    CHARGE:  cpu time      0.5754: real time      0.5774
    --------------------------------------------
      LOOP:  cpu time      3.8858: real time      3.9069

 eigenvalue-minimisations  :    72
 total energy-change (2. order) :-0.5287622E+01  (-0.5270852E+01)
 number of electron      30.0000000 magnetization 
 augmentation part       -0.1265474 magnetization 

 Free energy of the ion-electron system (eV)
  ---------------------------------------------------
  alpha Z        PSCENC =         0.26191385
  Ewald energy   TEWEN  =      2086.81657480
  -Hartree energ DENC   =     -2998.78842140
  -exchange      EXHF   =         0.00000000
  -V(xc)+E(xc)   XCENC  =       102.21187770
  PAW double counting   =       943.34848652     -937.28076607
  entropy T*S    EENTRO =        -0.00000000
  eigenvalues    EBANDS =      -550.11954323
  atomic energy  EATOM  =      1272.54359529
  ---------------------------------------------------
  free energy    TOTEN  =       -81.00628254 eV

  energy without entropy =      -81.00628254  energy(sigma->0) =      -81.00628254


--------------------------------------------------------------------------------------------------------




--------------------------------------- Iteration      1(   6)  ---------------------------------------


    POTLOK:  cpu time      1.6038: real time      1.6042
    SETDIJ:  cpu time      0.3669: real time      0.3671
    TRIAL :  cpu time      2.5596: real time      2.5610
    CORREC:  cpu time      3.1822: real time      3.1840
    CHARGE:  cpu time      0.5402: real time      0.5404
    --------------------------------------------
      LOOP:  cpu time      8.2681: real time      8.2893

 eigenvalue-minimisations  :     0
 total energy-change (2. order) : 0.1682439E+02  (-0.2975723E+01)
 number of electron      30.0000000 magnetization 
 augmentation part       -0.1278682 magnetization 

 Free energy of the ion-electron system (eV)
  ---------------------------------------------------
  alpha Z        PSCENC =         0.26191385
  Ewald energy   TEWEN  =      2086.81657480
  -Hartree energ DENC   =     -3202.51673084
  -exchange      EXHF   =         0.00000000
  -V(xc)+E(xc)   XCENC  =       114.79792278
  PAW double counting   =     11714.00600633   -11709.16465585
  entropy T*S    EENTRO =        -0.00000000
  eigenvalues    EBANDS =      -340.92651549
  atomic energy  EATOM  =      1272.54359529
  ---------------------------------------------------
  free energy    TOTEN  =       -64.18188913 eV

  energy without entropy =      -64.18188913  energy(sigma->0) =      -64.18188913


--------------------------------------------------------------------------------------------------------




--------------------------------------- Iteration      1(   7)  ---------------------------------------


    POTLOK:  cpu time      1.6089: real time      1.6098
    SETDIJ:  cpu time      0.3645: real time      0.3645
    TRIAL :  cpu time      2.5415: real time      2.5428
    CORREC:  cpu time      3.1798: real time      3.1814
    CHARGE:  cpu time      0.5404: real time      0.5406
    --------------------------------------------
      LOOP:  cpu time      8.2658: real time      8.2702

 eigenvalue-minimisations  :     0
 total energy-change (2. order) :-0.2994971E+01  (-0.3479307E+00)
 number of electron      30.0000000 magnetization 
 augmentation part       -0.1390856 magnetization 

 Free energy of the ion-electron system (eV)
  ---------------------------------------------------
  alpha Z        PSCENC =         0.26191385
  Ewald energy   TEWEN  =      2086.81657480
  -Hartree energ DENC   =     -3115.46468034
  -exchange      EXHF   =         0.00000000
  -V(xc)+E(xc)   XCENC  =       110.16323760
  PAW double counting   =     14572.01573628   -14566.45483688
  entropy T*S    EENTRO =        -0.00000000
  eigenvalues    EBANDS =      -427.05840030
  atomic energy  EATOM  =      1272.54359529
  ---------------------------------------------------
  free energy    TOTEN  =       -67.17685971 eV

  energy without entropy =      -67.17685971  energy(sigma->0) =      -67.17685971


--------------------------------------------------------------------------------------------------------




--------------------------------------- Iteration      1(   8)  ---------------------------------------


    POTLOK:  cpu time      1.6060: real time      1.6069
    SETDIJ:  cpu time      0.3611: real time      0.3611
    TRIAL :  cpu time      2.5382: real time      2.5397
    CORREC:  cpu time      3.1809: real time      3.1822
    CHARGE:  cpu time      0.5402: real time      0.5408
    --------------------------------------------
      LOOP:  cpu time      8.2430: real time      8.2636

 eigenvalue-minimisations  :     0
 total energy-change (2. order) :-0.3485314E+00  (-0.1207014E+00)
 number of electron      30.0000000 magnetization 
 augmentation part       -0.1403024 magnetization 

 Free energy of the ion-electron system (eV)
  ---------------------------------------------------
  alpha Z        PSCENC =         0.26191385
  Ewald energy   TEWEN  =      2086.81657480
  -Hartree energ DENC   =     -3115.65142091
  -exchange      EXHF   =         0.00000000
  -V(xc)+E(xc)   XCENC  =       109.96184737
  PAW double counting   =     15884.07255002   -15878.41285086
  entropy T*S    EENTRO =        -0.00000000
  eigenvalues    EBANDS =      -427.11760066
  atomic energy  EATOM  =      1272.54359529
  ---------------------------------------------------
  free energy    TOTEN  =       -67.52539110 eV

  energy without entropy =      -67.52539110  energy(sigma->0) =      -67.52539110


--------------------------------------------------------------------------------------------------------




--------------------------------------- Iteration      1(   9)  ---------------------------------------


    POTLOK:  cpu time      1.6088: real time      1.6091
    SETDIJ:  cpu time      0.3650: real time      0.3652
    TRIAL :  cpu time      2.5464: real time      2.5472
    CORREC:  cpu time      3.1733: real time      3.1747
    CHARGE:  cpu time      0.5395: real time      0.5400
    --------------------------------------------
      LOOP:  cpu time      8.2498: real time      8.2690

 eigenvalue-minimisations  :     0
 total energy-change (2. order) :-0.1208638E+00  (-0.4933264E-01)
 number of electron      30.0000000 magnetization 
 augmentation part       -0.1396227 magnetization 

 Free energy of the ion-electron system (eV)
  ---------------------------------------------------
  alpha Z        PSCENC =         0.26191385
  Ewald energy   TEWEN  =      2086.81657480
  -Hartree energ DENC   =     -3116.77930402
  -exchange      EXHF   =         0.00000000
  -V(xc)+E(xc)   XCENC  =       109.93551255
  PAW double counting   =     16647.03847031   -16641.33686030
  entropy T*S    EENTRO =        -0.00000000
  eigenvalues    EBANDS =      -426.12615736
  atomic energy  EATOM  =      1272.54359529
  ---------------------------------------------------
  free energy    TOTEN  =       -67.64625489 eV

  energy without entropy =      -67.64625489  energy(sigma->0) =      -67.64625489


--------------------------------------------------------------------------------------------------------




--------------------------------------- Iteration      1(  10)  ---------------------------------------


    POTLOK:  cpu time      1.6102: real time      1.6108
    SETDIJ:  cpu time      0.3696: real time      0.3696
    TRIAL :  cpu time      2.5362: real time      2.5372
    CORREC:  cpu time      3.1755: real time      3.1771
    CHARGE:  cpu time      0.5386: real time      0.5388
    --------------------------------------------
      LOOP:  cpu time      8.2617: real time      8.2656

 eigenvalue-minimisations  :     0
 total energy-change (2. order) :-0.4958548E-01  (-0.1867242E-01)
 number of electron      30.0000000 magnetization 
 augmentation part       -0.1390017 magnetization 

 Free energy of the ion-electron system (eV)
  ---------------------------------------------------
  alpha Z        PSCENC =         0.26191385
  Ewald energy   TEWEN  =      2086.81657480
  -Hartree energ DENC   =     -3114.59865712
  -exchange      EXHF   =         0.00000000
  -V(xc)+E(xc)   XCENC  =       109.87429453
  PAW double counting   =     16914.41533947   -16908.69532050
  entropy T*S    EENTRO =        -0.00000000
  eigenvalues    EBANDS =      -428.31358068
  atomic energy  EATOM  =      1272.54359529
  ---------------------------------------------------
  free energy    TOTEN  =       -67.69584036 eV

  energy without entropy =      -67.69584036  energy(sigma->0) =      -67.69584036


--------------------------------------------------------------------------------------------------------




--------------------------------------- Iteration      1(  11)  ---------------------------------------


    POTLOK:  cpu time      1.6360: real time      1.6369
    SETDIJ:  cpu time      0.3255: real time      0.3255
    TRIAL :  cpu time      2.5385: real time      2.5397
    CORREC:  cpu time      3.1729: real time      3.1743
    CHARGE:  cpu time      0.5410: real time      0.5411
    --------------------------------------------
      LOOP:  cpu time      8.2283: real time      8.2488

 eigenvalue-minimisations  :     0
 total energy-change (2. order) :-0.1878004E-01  (-0.6661072E-02)
 number of electron      30.0000000 magnetization 
 augmentation part       -0.1383654 magnetization 

 Free energy of the ion-electron system (eV)
  ---------------------------------------------------
  alpha Z        PSCENC =         0.26191385
  Ewald energy   TEWEN  =      2086.81657480
  -Hartree energ DENC   =     -3113.54002870
  -exchange      EXHF   =         0.00000000
  -V(xc)+E(xc)   XCENC  =       109.86737616
  PAW double counting   =     16855.49809999   -16849.78110859
  entropy T*S    EENTRO =        -0.00000000
  eigenvalues    EBANDS =      -429.38104319
  atomic energy  EATOM  =      1272.54359529
  ---------------------------------------------------
  free energy    TOTEN  =       -67.71462040 eV

  energy without entropy =      -67.71462040  energy(sigma->0) =      -67.71462040


--------------------------------------------------------------------------------------------------------




--------------------------------------- Iteration      1(  12)  ---------------------------------------


    POTLOK:  cpu time      1.6046: real time      1.6055
    SETDIJ:  cpu time      0.3612: real time      0.3612
    TRIAL :  cpu time      2.5367: real time      2.5380
    CORREC:  cpu time      3.2072: real time      3.2085
    CHARGE:  cpu time      0.5403: real time      0.5409
    --------------------------------------------
      LOOP:  cpu time      8.2655: real time      8.2878

 eigenvalue-minimisations  :     0
 total energy-change (2. order) :-0.6680225E-02  (-0.2221959E-02)
 number of electron      30.0000000 magnetization 
 augmentation part       -0.1382191 magnetization 

 Free energy of the ion-electron system (eV)
  ---------------------------------------------------
  alpha Z        PSCENC =         0.26191385
  Ewald energy   TEWEN  =      2086.81657480
  -Hartree energ DENC   =     -3113.44139714
  -exchange      EXHF   =         0.00000000
  -V(xc)+E(xc)   XCENC  =       109.87067094
  PAW double counting   =     16739.03162626   -16733.32111917
  entropy T*S    EENTRO =        -0.00000000
  eigenvalues    EBANDS =      -429.48316546
  atomic energy  EATOM  =      1272.54359529
  ---------------------------------------------------
  free energy    TOTEN  =       -67.72130062 eV

  energy without entropy =      -67.72130062  energy(sigma->0) =      -67.72130062


--------------------------------------------------------------------------------------------------------




--------------------------------------- Iteration      1(  13)  ---------------------------------------


    POTLOK:  cpu time      1.6050: real time      1.6055
    SETDIJ:  cpu time      0.3599: real time      0.3601
    TRIAL :  cpu time      2.5369: real time      2.5378
    CORREC:  cpu time      3.1875: real time      3.1887
    CHARGE:  cpu time      0.5405: real time      0.5408
    --------------------------------------------
      LOOP:  cpu time      8.2444: real time      8.2650

 eigenvalue-minimisations  :     0
 total energy-change (2. order) :-0.2217484E-02  (-0.6554764E-03)
 number of electron      30.0000000 magnetization 
 augmentation part       -0.1383351 magnetization 

 Free energy of the ion-electron system (eV)
  ---------------------------------------------------
  alpha Z        PSCENC =         0.26191385
  Ewald energy   TEWEN  =      2086.81657480
  -Hartree energ DENC   =     -3113.12218356
  -exchange      EXHF   =         0.00000000
  -V(xc)+E(xc)   XCENC  =       109.85518365
  PAW double counting   =     16669.62934331   -16663.92067525
  entropy T*S    EENTRO =        -0.00000000
  eigenvalues    EBANDS =      -429.78727020
  atomic energy  EATOM  =      1272.54359529
  ---------------------------------------------------
  free energy    TOTEN  =       -67.72351811 eV

  energy without entropy =      -67.72351811  energy(sigma->0) =      -67.72351811


--------------------------------------------------------------------------------------------------------




--------------------------------------- Iteration      1(  14)  ---------------------------------------


    POTLOK:  cpu time      1.6036: real time      1.6043
    SETDIJ:  cpu time      0.3645: real time      0.3645
    TRIAL :  cpu time      2.5409: real time      2.5417
    CORREC:  cpu time      3.1722: real time      3.1738
    CHARGE:  cpu time      0.5410: real time      0.5412
    --------------------------------------------
      LOOP:  cpu time      8.2412: real time      8.2573

 eigenvalue-minimisations  :     0
 total energy-change (2. order) :-0.6493272E-03  (-0.1982281E-03)
 number of electron      30.0000000 magnetization 
 augmentation part       -0.1384119 magnetization 

 Free energy of the ion-electron system (eV)
  ---------------------------------------------------
  alpha Z        PSCENC =         0.26191385
  Ewald energy   TEWEN  =      2086.81657480
  -Hartree energ DENC   =     -3112.98759782
  -exchange      EXHF   =         0.00000000
  -V(xc)+E(xc)   XCENC  =       109.84859328
  PAW double counting   =     16639.75729372   -16634.04891613
  entropy T*S    EENTRO =        -0.00000000
  eigenvalues    EBANDS =      -429.91562442
  atomic energy  EATOM  =      1272.54359529
  ---------------------------------------------------
  free energy    TOTEN  =       -67.72416744 eV

  energy without entropy =      -67.72416744  energy(sigma->0) =      -67.72416744


--------------------------------------------------------------------------------------------------------




--------------------------------------- Iteration      1(  15)  ---------------------------------------


    POTLOK:  cpu time      1.6010: real time      1.6020
    SETDIJ:  cpu time      0.3665: real time      0.3665
    TRIAL :  cpu time      2.5498: real time      2.5511
    CORREC:  cpu time      3.2168: real time      3.2179
    CHARGE:  cpu time      0.5409: real time      0.5413
    --------------------------------------------
      LOOP:  cpu time      8.3063: real time      8.3107

 eigenvalue-minimisations  :     0
 total energy-change (2. order) :-0.1945321E-03  (-0.7170489E-04)
 number of electron      30.0000000 magnetization 
 augmentation part       -0.1384301 magnetization 

 Free energy of the ion-electron system (eV)
  ---------------------------------------------------
  alpha Z        PSCENC =         0.26191385
  Ewald energy   TEWEN  =      2086.81657480
  -Hartree energ DENC   =     -3113.06959647
  -exchange      EXHF   =         0.00000000
  -V(xc)+E(xc)   XCENC  =       109.85132375
  PAW double counting   =     16624.29008484   -16618.58196370
  entropy T*S    EENTRO =        -0.00000000
  eigenvalues    EBANDS =      -429.83629432
  atomic energy  EATOM  =      1272.54359529
  ---------------------------------------------------
  free energy    TOTEN  =       -67.72436197 eV

  energy without entropy =      -67.72436197  energy(sigma->0) =      -67.72436197


--------------------------------------------------------------------------------------------------------




--------------------------------------- Iteration      1(  16)  ---------------------------------------


    POTLOK:  cpu time      1.6021: real time      1.6026
    SETDIJ:  cpu time      0.3643: real time      0.3645
    TRIAL :  cpu time      2.5335: real time      2.5343
    CORREC:  cpu time      3.1681: real time      3.1692
    CHARGE:  cpu time      0.5410: real time      0.5415
    --------------------------------------------
      LOOP:  cpu time      8.2234: real time      8.2441

 eigenvalue-minimisations  :     0
 total energy-change (2. order) :-0.7016967E-04  (-0.2770624E-04)
 number of electron      30.0000000 magnetization 
 augmentation part       -0.1384116 magnetization 

 Free energy of the ion-electron system (eV)
  ---------------------------------------------------
  alpha Z        PSCENC =         0.26191385
  Ewald energy   TEWEN  =      2086.81657480
  -Hartree energ DENC   =     -3113.06193008
  -exchange      EXHF   =         0.00000000
  -V(xc)+E(xc)   XCENC  =       109.85047749
  PAW double counting   =     16613.51702814   -16607.80866436
  entropy T*S    EENTRO =        -0.00000000
  eigenvalues    EBANDS =      -429.84342726
  atomic energy  EATOM  =      1272.54359529
  ---------------------------------------------------
  free energy    TOTEN  =       -67.72443214 eV

  energy without entropy =      -67.72443214  energy(sigma->0) =      -67.72443214


--------------------------------------------------------------------------------------------------------




--------------------------------------- Iteration      1(  17)  ---------------------------------------


    POTLOK:  cpu time      1.6057: real time      1.6061
    SETDIJ:  cpu time      0.3596: real time      0.3598
    TRIAL :  cpu time      2.5495: real time      2.5503
    CORREC:  cpu time      3.1800: real time      3.1811
    CHARGE:  cpu time      0.5430: real time      0.5435
    --------------------------------------------
      LOOP:  cpu time      8.2536: real time      8.2732

 eigenvalue-minimisations  :     0
 total energy-change (2. order) :-0.2769437E-04  (-0.9417271E-05)
 number of electron      30.0000000 magnetization 
 augmentation part       -0.1383882 magnetization 

 Free energy of the ion-electron system (eV)
  ---------------------------------------------------
  alpha Z        PSCENC =         0.26191385
  Ewald energy   TEWEN  =      2086.81657480
  -Hartree energ DENC   =     -3113.07365444
  -exchange      EXHF   =         0.00000000
  -V(xc)+E(xc)   XCENC  =       109.85100272
  PAW double counting   =     16606.27153282   -16600.56319906
  entropy T*S    EENTRO =        -0.00000000
  eigenvalues    EBANDS =      -429.83222580
  atomic energy  EATOM  =      1272.54359529
  ---------------------------------------------------
  free energy    TOTEN  =       -67.72445983 eV

  energy without entropy =      -67.72445983  energy(sigma->0) =      -67.72445983


--------------------------------------------------------------------------------------------------------




--------------------------------------- Iteration      1(  18)  ---------------------------------------


    POTLOK:  cpu time      1.6030: real time      1.6038
    SETDIJ:  cpu time      0.3633: real time      0.3633
    TRIAL :  cpu time      2.5352: real time      2.5363
    CORREC:  cpu time      3.1733: real time      3.1746
    CHARGE:  cpu time      0.5423: real time      0.5424
    --------------------------------------------
      LOOP:  cpu time      8.2489: real time      8.2528

 eigenvalue-minimisations  :     0
 total energy-change (2. order) :-0.9679547E-05  (-0.2855538E-05)
 number of electron      30.0000000 magnetization 
 augmentation part       -0.1383764 magnetization 

 Free energy of the ion-electron system (eV)
  ---------------------------------------------------
  alpha Z        PSCENC =         0.26191385
  Ewald energy   TEWEN  =      2086.81657480
  -Hartree energ DENC   =     -3113.08997795
  -exchange      EXHF   =         0.00000000
  -V(xc)+E(xc)   XCENC  =       109.85170777
  PAW double counting   =     16604.48720324   -16598.77892873
  entropy T*S    EENTRO =        -0.00000000
  eigenvalues    EBANDS =      -429.81655778
  atomic energy  EATOM  =      1272.54359529
  ---------------------------------------------------
  free energy    TOTEN  =       -67.72446951 eV

  energy without entropy =      -67.72446951  energy(sigma->0) =      -67.72446951


--------------------------------------------------------------------------------------------------------




--------------------------------------- Iteration      1(  19)  ---------------------------------------


    POTLOK:  cpu time      1.6012: real time      1.6020
    SETDIJ:  cpu time      0.4007: real time      0.4007
    TRIAL :  cpu time      2.5374: real time      2.5387
    CORREC:  cpu time      3.1799: real time      3.1812
    CHARGE:  cpu time      0.5386: real time      0.5393
    --------------------------------------------
      LOOP:  cpu time      8.2728: real time      8.2986

 eigenvalue-minimisations  :     0
 total energy-change (2. order) :-0.2984189E-05  (-0.7564239E-06)
 number of electron      30.0000000 magnetization 
 augmentation part       -0.1383713 magnetization 

 Free energy of the ion-electron system (eV)
  ---------------------------------------------------
  alpha Z        PSCENC =         0.26191385
  Ewald energy   TEWEN  =      2086.81657480
  -Hartree energ DENC   =     -3113.08800821
  -exchange      EXHF   =         0.00000000
  -V(xc)+E(xc)   XCENC  =       109.85161298
  PAW double counting   =     16605.80048694   -16600.09216805
  entropy T*S    EENTRO =        -0.00000000
  eigenvalues    EBANDS =      -429.81848009
  atomic energy  EATOM  =      1272.54359529
  ---------------------------------------------------
  free energy    TOTEN  =       -67.72447250 eV

  energy without entropy =      -67.72447250  energy(sigma->0) =      -67.72447250


--------------------------------------------------------------------------------------------------------




--------------------------------------- Iteration      1(  20)  ---------------------------------------


    POTLOK:  cpu time      1.6722: real time      1.6727
    SETDIJ:  cpu time      0.2922: real time      0.2924
    TRIAL :  cpu time      2.5401: real time      2.5412
    CORREC:  cpu time      3.1717: real time      3.1729
    CHARGE:  cpu time      0.5402: real time      0.5407
    --------------------------------------------
      LOOP:  cpu time      8.2350: real time      8.2515

 eigenvalue-minimisations  :     0
 total energy-change (2. order) :-0.7828439E-06  (-0.2166615E-06)
 number of electron      30.0000000 magnetization 
 augmentation part       -0.1383684 magnetization 

 Free energy of the ion-electron system (eV)
  ---------------------------------------------------
  alpha Z        PSCENC =         0.26191385
  Ewald energy   TEWEN  =      2086.81657480
  -Hartree energ DENC   =     -3113.08909713
  -exchange      EXHF   =         0.00000000
  -V(xc)+E(xc)   XCENC  =       109.85168217
  PAW double counting   =     16607.36987635   -16601.66154031
  entropy T*S    EENTRO =        -0.00000000
  eigenvalues    EBANDS =      -429.81747829
  atomic energy  EATOM  =      1272.54359529
  ---------------------------------------------------
  free energy    TOTEN  =       -67.72447328 eV

  energy without entropy =      -67.72447328  energy(sigma->0) =      -67.72447328


--------------------------------------------------------------------------------------------------------




--------------------------------------- Iteration      1(  21)  ---------------------------------------


    POTLOK:  cpu time      1.6020: real time      1.6024
    SETDIJ:  cpu time      0.3631: real time      0.3634
    TRIAL :  cpu time      2.5378: real time      2.5390
    CORREC:  cpu time      3.1708: real time      3.1723
    CHARGE:  cpu time      0.5411: real time      0.5412
    --------------------------------------------
      LOOP:  cpu time      8.2463: real time      8.2501

 eigenvalue-minimisations  :     0
 total energy-change (2. order) :-0.2111483E-06  (-0.8485538E-07)
 number of electron      30.0000000 magnetization 
 augmentation part       -0.1383665 magnetization 

 Free energy of the ion-electron system (eV)
  ---------------------------------------------------
  alpha Z        PSCENC =         0.26191385
  Ewald energy   TEWEN  =      2086.81657480
  -Hartree energ DENC   =     -3113.09003991
  -exchange      EXHF   =         0.00000000
  -V(xc)+E(xc)   XCENC  =       109.85174407
  PAW double counting   =     16608.44956527   -16602.74122427
  entropy T*S    EENTRO =        -0.00000000
  eigenvalues    EBANDS =      -429.81660258
  atomic energy  EATOM  =      1272.54359529
  ---------------------------------------------------
  free energy    TOTEN  =       -67.72447349 eV

  energy without entropy =      -67.72447349  energy(sigma->0) =      -67.72447349


--------------------------------------------------------------------------------------------------------




--------------------------------------- Iteration      1(  22)  ---------------------------------------


    POTLOK:  cpu time      1.6028: real time      1.6041
    SETDIJ:  cpu time      0.3602: real time      0.3602
    TRIAL :  cpu time      2.5382: real time      2.5396
    CORREC:  cpu time      3.1714: real time      3.1730
    EDDIAG:  cpu time      0.6648: real time      0.6652
    CHARGE:  cpu time      0.5400: real time      0.5406
    --------------------------------------------
      LOOP:  cpu time      8.9091: real time      8.9148

 eigenvalue-minimisations  :     0
 total energy-change (2. order) :-0.9116775E-07  (-0.4099023E-07)
 number of electron      30.0000000 magnetization 
 augmentation part       -0.1383645 magnetization 

 Free energy of the ion-electron system (eV)
  ---------------------------------------------------
  alpha Z        PSCENC =         0.26191385
  Ewald energy   TEWEN  =      2086.81657480
  -Hartree energ DENC   =     -3113.08931653
  -exchange      EXHF   =         0.00000000
  -V(xc)+E(xc)   XCENC  =       109.85172456
  PAW double counting   =     16609.05322913   -16603.34488519
  entropy T*S    EENTRO =        -0.00000000
  eigenvalues    EBANDS =      -429.81730948
  atomic energy  EATOM  =      1272.54359529
  ---------------------------------------------------
  free energy    TOTEN  =       -67.72447358 eV

  energy without entropy =      -67.72447358  energy(sigma->0) =      -67.72447358


--------------------------------------------------------------------------------------------------------


  average scaling for gradient   1.1140


 average (electrostatic) potential at core
  the test charge radii are     0.5770  0.4325  0.5902
  (the norm of the test charge is              1.0000)
       1 -90.9299       2 -90.9339       3 -90.9310       4 -47.9386       5 -47.9380
       6 -47.9392       7-107.0654       8-107.0724       9-107.0666



 E-fermi :  -6.7928     XC(G=0):  -0.1005     alpha+bet : -0.0635

 Fermi energy:        -6.7928337116

 k-point     1 :       0.0000    0.0000    0.0000
  band No.  band energies     occupation 
      1     -27.1985      2.00000
      2     -23.9809      2.00000
      3     -23.9799      2.00000
      4     -18.0358      2.00000
      5     -18.0348      2.00000
      6     -14.3495      2.00000
      7     -14.3468      2.00000
      8     -11.8042      2.00000
      9     -11.2013      2.00000
     10     -11.2004      2.00000
     11      -9.6805      2.00000
     12      -8.6909      2.00000
     13      -8.6902      2.00000
     14      -6.8578      2.00000
     15      -6.8574      2.00000
     16      -2.4675      0.00000
     17      -2.4670      0.00000
     18      -0.0031      0.00000
     19       0.2294      0.00000
     20       0.3338      0.00000
     21       0.3547      0.00000
     22       0.3602      0.00000
     23       0.3921      0.00000
     24       0.6176      0.00000


--------------------------------------------------------------------------------------------------------


 soft charge-density along one line, spin component           1
         0         1         2         3         4         5         6         7         8         9
 total charge-density along one line

 pseudopotential strength for first ion, spin component:           1
 12.746  21.449   0.005  -0.000   0.002   0.010  -0.000   0.004
 21.449  36.093   0.009  -0.000   0.004   0.016  -0.000   0.007
  0.005   0.009  -3.281  -0.000   0.001  -5.882  -0.000   0.002
 -0.000  -0.000  -0.000  -3.287   0.000  -0.000  -5.893   0.000
  0.002   0.004   0.001   0.000  -3.283   0.002   0.000  -5.885
  0.010   0.016  -5.882  -0.000   0.002 -10.522  -0.000   0.003
 -0.000  -0.000  -0.000  -5.893   0.000  -0.000 -10.540   0.000
  0.004   0.007   0.002   0.000  -5.885   0.003   0.000 -10.527
 total augmentation occupancy for first ion, spin component:           1
  9.527  -3.588   1.155  -0.000   0.582  -0.562   0.000  -0.283
 -3.588   1.414  -0.619   0.000  -0.312   0.288  -0.000   0.145
  1.155  -0.619   7.687  -0.000  -0.809  -2.665   0.000   0.404
 -0.000   0.000  -0.000   3.202   0.000   0.000  -0.924  -0.000
  0.582  -0.312  -0.809   0.000   8.905   0.404  -0.000  -3.273
 -0.562   0.288  -2.665   0.000   0.404   0.943  -0.000  -0.190
  0.000  -0.000   0.000  -0.924  -0.000  -0.000   0.269   0.000
 -0.283   0.145   0.404  -0.000  -3.273  -0.190   0.000   1.228


------------------------ aborting loop because EDIFF is reached ----------------------------------------


    FORLOC:  cpu time      0.0360: real time      0.0360
    FORNL :  cpu time      0.0238: real time      0.0240
    FORCOR:  cpu time      1.6706: real time      1.6714
    OFIELD:  cpu time      0.0057: real time      0.0064

 VOLUME and BASIS-vectors are now :
 -----------------------------------------------------------------------------
  energy-cutoff  :     1000.00
  volume of cell :    10648.00
      direct lattice vectors                 reciprocal lattice vectors
    22.000000000  0.000000000  0.000000000     0.045454545  0.000000000  0.000000000
     0.000000000 22.000000000  0.000000000     0.000000000  0.045454545  0.000000000
     0.000000000  0.000000000 22.000000000     0.000000000  0.000000000  0.045454545

  length of vectors
    22.000000000 22.000000000 22.000000000     0.045454545  0.045454545  0.045454545


 FORCES acting on ions:
    Electron-Ion                     Ewald-Force                    Non-Local-Force
 -----------------------------------------------------------------------------------------------
   0.990E+02 0.198E+03 -.551E-02   -.101E+03 -.201E+03 0.587E-02   0.182E+01 0.362E+01 -.613E-03
   -.221E+03 -.132E+02 0.385E-01   0.225E+03 0.135E+02 -.391E-01   -.406E+01 -.238E+00 0.303E-02
   0.122E+03 -.185E+03 0.639E-02   -.124E+03 0.188E+03 -.744E-02   0.224E+01 -.339E+01 0.177E-02
   -.861E+02 -.518E+01 0.630E-02   0.921E+02 0.553E+01 -.670E-02   -.619E+01 -.373E+00 0.319E-03
   0.386E+02 0.772E+02 0.507E-02   -.413E+02 -.825E+02 -.520E-02   0.277E+01 0.555E+01 0.549E-03
   0.475E+02 -.720E+02 0.890E-02   -.508E+02 0.770E+02 -.932E-02   0.342E+01 -.518E+01 0.827E-03
   -.162E+03 0.245E+03 0.140E-02   0.183E+03 -.277E+03 -.331E-02   -.214E+02 0.324E+02 0.915E-03
   0.293E+03 0.176E+02 0.348E-01   -.331E+03 -.198E+02 -.412E-01   0.387E+02 0.230E+01 0.601E-02
   -.131E+03 -.262E+03 -.971E-01   0.148E+03 0.297E+03 0.106E+00   -.173E+02 -.347E+02 -.114E-01
 -----------------------------------------------------------------------------------------------
   0.225E-01 0.344E-02 -.126E-02   0.853E-13 0.568E-13 0.000E+00   0.337E-01 0.971E-03 0.145E-02


 POSITION                                       TOTAL-FORCE (eV/Angst)
 -----------------------------------------------------------------------------------
      9.91484      9.91149     10.99987         0.190513      0.329446     -0.000363
     11.78950     11.14894     10.99987        -0.389587     -0.020954      0.002398
      9.78050     12.15370     10.99993         0.220365     -0.314453      0.000683
     12.87815     11.21447     10.99981        -0.269350     -0.017221     -0.000103
      9.42702      8.93600     10.99979         0.112218      0.235879      0.000391
      9.17989     13.06400     10.99980         0.135962     -0.220343      0.000384
     11.25283      9.92324     10.99988        -0.269360      0.405071     -0.000887
      9.12185     10.98907     10.99979         0.463667      0.012378     -0.000343
     11.11021     12.30180     11.00021        -0.194429     -0.409803     -0.002160
 -----------------------------------------------------------------------------------
    total drift:                                0.056191      0.004412      0.000185


--------------------------------------------------------------------------------------------------------



  FREE ENERGIE OF THE ION-ELECTRON SYSTEM (eV)
  ---------------------------------------------------
  free  energy   TOTEN  =       -67.72447358 eV

  energy  without entropy=      -67.72447358  energy(sigma->0) =      -67.72447358



--------------------------------------------------------------------------------------------------------


    POTLOK:  cpu time      2.0257: real time      2.0265


--------------------------------------------------------------------------------------------------------


 stress matrix after NEB project (eV)
      0.00000      0.00000      0.00000
      0.00000      0.00000      0.00000
      0.00000      0.00000      0.00000
  FORCES: max atom, RMS     0.486454    0.381537
  FORCE total and by dimension    1.144611    0.463667
  Stress total and by dimension    0.000000    0.000000
     LOOP+:  cpu time    163.7207: real time    164.0718
    4ORBIT:  cpu time      0.0000: real time      0.0000

 total amount of memory used by VASP MPI-rank0   127103. kBytes
=======================================================================

   base      :      30000. kBytes
   nonl-proj :       4010. kBytes
   fftplans  :      24880. kBytes
   grid      :      66493. kBytes
   one-center:          1. kBytes
   wavefun   :       1719. kBytes

  
  
 General timing and accounting informations for this job:
 ========================================================
  
                  Total CPU time used (sec):      191.844
                            User time (sec):      175.479
                          System time (sec):       16.364
                         Elapsed time (sec):      200.196
  
                   Maximum memory used (kb):      340672.
                   Average memory used (kb):          N/A
  
                          Minor page faults:       393675
                          Major page faults:          634
                 Voluntary context switches:         7064
