 vasp.6.4.1 05Apr23 (build Jun  6 2023 14:46:38) gamma-only                      
 executed on        HPECrayEX_GCC date 2024.08.20  21:12:38
 running  256 mpi-ranks, with    1 threads/rank, on    2 nodes
 distrk:  each k-point on  256 cores,    1 groups
 distr:  one band on NCORE=   2 cores,  128 groups


--------------------------------------------------------------------------------------------------------


 INCAR:
   ALGO = Conjugate
   NCORE = 2
   PREC = Accurate
   EDIFF = 1E-7
   ENCUT = 1000
   ISMEAR = 0
   SIGMA = 0.01
   ISIF = 0
   SYMPREC = 1E-7
   GGA = RP
   IVDW = 11
   LWAVE = .FALSE.
   LCHARG = .FALSE.
   LWAVE = .FALSE.
   LCHARG = .FALSE.

 POTCAR:    PAW_PBE C_h 06Feb2004                 
 POTCAR:    PAW_PBE H_h 06Feb2004                 
 POTCAR:    PAW_PBE C_h 06Feb2004                 
   VRHFIN =C: s2p2                                                                                  
   LEXCH  = PE                                                                                      
   EATOM  =   147.1560 eV,   10.8157 Ry                                                             
                                                                                                    
   TITEL  = PAW_PBE C_h 06Feb2004                                                                   
   LULTRA =        F    use ultrasoft PP ?                                                          
   IUNSCR =        1    unscreen: 0-lin 1-nonlin 2-no                                               
   RPACOR =    0.800    partial core radius                                                         
   POMASS =   12.011; ZVAL   =    4.000    mass and valenz                                          
   RCORE  =    1.100    outmost cutoff radius                                                       
   RWIGS  =    1.630; RWIGS  =    0.863    wigner-seitz radius (au A)                               
   ENMAX  =  700.000; ENMIN  =  500.000 eV                                                          
   ICORE  =        2    local potential                                                             
   LCOR   =        T    correct aug charges                                                         
   LPAW   =        T    paw PP                                                                      
   EAUG   =  946.768                                                                                
   DEXC   =    0.000                                                                                
   RMAX   =    1.128    core radius for proj-oper                                                   
   RAUG   =    1.300    factor for augmentation sphere                                              
   RDEP   =    1.162    radius for radial grids                                                     
   RDEPT  =    1.088    core radius for aug-charge                                                  
                                                                                                    
   Atomic configuration                                                                             
    4 entries                                                                                       
     n  l   j            E        occ.                                                              
     1  0  0.50      -273.3789   2.0000                                                             
     2  0  0.50       -13.7508   2.0000                                                             
     2  1  0.50        -5.2854   2.0000                                                             
     3  2  1.50        -5.4423   0.0000                                                             
   Description                                                                                      
     l       E           TYP  RCUT    TYP  RCUT                                                     
     0    -13.7508458     23  1.100                                                                 
     0     -8.2022199     23  1.100                                                                 
     1     -5.2854383     23  1.100                                                                 
     1      1.1560700     23  1.100                                                                 
     2     -5.4423304      7  1.100                                                                 
  local pseudopotential read in
  partial core-charges read in
  partial kinetic energy density read in
  atomic valenz-charges read in
  non local Contribution for L=           0  read in
    real space projection operators read in
  non local Contribution for L=           0  read in
    real space projection operators read in
  non local Contribution for L=           1  read in
    real space projection operators read in
  non local Contribution for L=           1  read in
    real space projection operators read in
    PAW grid and wavefunctions read in

   number of l-projection  operators is LMAX  =           4
   number of lm-projection operators is LMMAX =           8

 POTCAR:    PAW_PBE H_h 06Feb2004                 
   VRHFIN =H: ultrasoft test                                                                        
   LEXCH  = PE                                                                                      
   EATOM  =    12.4884 eV,    0.9179 Ry                                                             
                                                                                                    
   TITEL  = PAW_PBE H_h 06Feb2004                                                                   
   LULTRA =        F    use ultrasoft PP ?                                                          
   IUNSCR =        0    unscreen: 0-lin 1-nonlin 2-no                                               
   RPACOR =    0.000    partial core radius                                                         
   POMASS =    1.000; ZVAL   =    1.000    mass and valenz                                          
   RCORE  =    0.800    outmost cutoff radius                                                       
   RWIGS  =    0.700; RWIGS  =    0.370    wigner-seitz radius (au A)                               
   ENMAX  =  700.000; ENMIN  =  350.000 eV                                                          
   RCLOC  =    0.701    cutoff for local pot                                                        
   LCOR   =        T    correct aug charges                                                         
   LPAW   =        T    paw PP                                                                      
   EAUG   = 1000.000                                                                                
   RMAX   =    0.819    core radius for proj-oper                                                   
   RAUG   =    1.000    factor for augmentation sphere                                              
   RDEP   =    0.817    radius for radial grids                                                     
   RDEPT  =    0.817    core radius for aug-charge                                                  
                                                                                                    
   Atomic configuration                                                                             
    2 entries                                                                                       
     n  l   j            E        occ.                                                              
     1  0  0.50        -6.4927   1.0000                                                             
     2  1  0.50        -3.4015   0.0000                                                             
   Description                                                                                      
     l       E           TYP  RCUT    TYP  RCUT                                                     
     0     -6.4927493     23  0.800                                                                 
     0      6.8029130     23  0.800                                                                 
     1     -6.8029130     23  0.800                                                                 
  local pseudopotential read in
  atomic valenz-charges read in
  non local Contribution for L=           0  read in
    real space projection operators read in
  non local Contribution for L=           0  read in
    real space projection operators read in
  non local Contribution for L=           1  read in
    real space projection operators read in
    PAW grid and wavefunctions read in

   number of l-projection  operators is LMAX  =           3
   number of lm-projection operators is LMMAX =           5

 -----------------------------------------------------------------------------
|                                                                             |
|               ----> ADVICE to this user running VASP <----                  |
|                                                                             |
|     You have a (more or less) 'large supercell' and for larger cells it     |
|     might be more efficient to use real-space projection operators.         |
|     Therefore, try LREAL= Auto in the INCAR file.                           |
|     Mind: For very accurate calculation, you might also keep the            |
|     reciprocal projection scheme (i.e. LREAL=.FALSE.).                      |
|                                                                             |
 -----------------------------------------------------------------------------

 -----------------------------------------------------------------------------
|                                                                             |
|               ----> ADVICE to this user running VASP <----                  |
|                                                                             |
|     You enforced a specific xc type in the INCAR file but a different       |
|     type was found in the POTCAR file.                                      |
|     I HOPE YOU KNOW WHAT YOU ARE DOING!                                     |
|                                                                             |
 -----------------------------------------------------------------------------

  PAW_PBE C_h 06Feb2004                 :
 energy of atom  1       EATOM= -147.1560
 kinetic energy error for atom=    0.0031 (will be added to EATOM!!)
  PAW_PBE H_h 06Feb2004                 :
 energy of atom  2       EATOM=  -12.4884
 kinetic energy error for atom=    0.0006 (will be added to EATOM!!)


 POSCAR:  C  H
  positions in cartesian coordinates
  No initial velocities read in
 exchange correlation table for  LEXCH =        9
   RHO(1)=    0.500       N(1)  =     2000
   RHO(2)=  100.500       N(2)  =     4000

 VTST: version 4.1, (05/19/21)

 CHAIN: initializing optimizer
 
 OPT: Using VASP Dynamics algorithm
 CHAIN: Read ICHAIN            0

 POSCAR:  C  H
  positions in cartesian coordinates
  No initial velocities read in



--------------------------------------------------------------------------------------------------------


 ion  position               nearest neighbor table
   1  0.500  0.500  0.419-  11 1.10  13 1.10   3 1.54   5 1.54
   2  0.500  0.500  0.581-  12 1.10  14 1.10   4 1.54   6 1.54
   3  0.508  0.557  0.460-  15 1.10  10 1.54   1 1.54   7 1.54
   4  0.443  0.508  0.540-  16 1.10   7 1.54   2 1.54   8 1.54
   5  0.492  0.443  0.460-  17 1.10   8 1.54   1 1.54   9 1.54
   6  0.557  0.492  0.540-  18 1.10   9 1.54   2 1.54  10 1.54
   7  0.451  0.564  0.500-  19 1.10  23 1.10   4 1.54   3 1.54
   8  0.436  0.451  0.500-  20 1.10  24 1.10   5 1.54   4 1.54
   9  0.549  0.436  0.500-  21 1.10  25 1.10   6 1.54   5 1.54
  10  0.564  0.549  0.500-  22 1.10  26 1.10   3 1.54   6 1.54
  11  0.460  0.505  0.389-   1 1.10
  12  0.495  0.460  0.611-   2 1.10
  13  0.540  0.495  0.390-   1 1.10
  14  0.505  0.540  0.611-   2 1.10
  15  0.513  0.597  0.431-   3 1.10
  16  0.403  0.513  0.569-   4 1.10
  17  0.487  0.403  0.431-   5 1.10
  18  0.597  0.487  0.569-   6 1.10
  19  0.410  0.571  0.472-   7 1.10
  20  0.429  0.410  0.528-   8 1.10
  21  0.590  0.429  0.472-   9 1.10
  22  0.571  0.590  0.528-  10 1.10
  23  0.456  0.605  0.529-   7 1.10
  24  0.395  0.456  0.471-   8 1.10
  25  0.544  0.395  0.529-   9 1.10
  26  0.605  0.544  0.471-  10 1.10

  LATTYP: Found a simple cubic cell.
 ALAT       =    22.0000000000
  
  Lattice vectors:
  
 A1 = (  22.0000000000,   0.0000000000,   0.0000000000)
 A2 = (   0.0000000000,  22.0000000000,   0.0000000000)
 A3 = (   0.0000000000,   0.0000000000,  22.0000000000)


Analysis of symmetry for initial positions (statically):
=====================================================================
 Subroutine PRICEL returns:
 Original cell was already a primitive cell.
 

 Routine SETGRP: Setting up the symmetry group for a 
 simple cubic supercell.


 Subroutine GETGRP returns: Found  1 space group operations
 (whereof  1 operations were pure point group operations)
 out of a pool of 48 trial point group operations.


The static configuration has the point symmetry C_1 .


Analysis of symmetry for dynamics (positions and initial velocities):
=====================================================================
 Subroutine PRICEL returns:
 Original cell was already a primitive cell.
 

 Routine SETGRP: Setting up the symmetry group for a 
 simple cubic supercell.


 Subroutine GETGRP returns: Found  1 space group operations
 (whereof  1 operations were pure point group operations)
 out of a pool of 48 trial point group operations.


The dynamic configuration has the point symmetry C_1 .


 Subroutine INISYM returns: Found  1 space group operations
 (whereof  1 operations are pure point group operations),
 and found     1 'primitive' translations


----------------------------------------------------------------------------------------

                                     Primitive cell                                     

  volume of cell :   10648.0000

  direct lattice vectors                    reciprocal lattice vectors
    22.000000000  0.000000000  0.000000000     0.045454545  0.000000000  0.000000000
     0.000000000 22.000000000  0.000000000     0.000000000  0.045454545  0.000000000
     0.000000000  0.000000000 22.000000000     0.000000000  0.000000000  0.045454545

  length of vectors
    22.000000000 22.000000000 22.000000000     0.045454545  0.045454545  0.045454545

  position of ions in fractional coordinates (direct lattice)
     0.500015000  0.500002727  0.419240455
     0.499991364  0.499999545  0.580775909
     0.507513636  0.556724545  0.459541364
     0.443271364  0.507514545  0.540472727
     0.492492727  0.443278182  0.459535000
     0.556718182  0.492483182  0.540482273
     0.450933182  0.564130455  0.500060909
     0.435871818  0.450940455  0.499938636
     0.549062727  0.435867273  0.500068182
     0.564125000  0.549062727  0.499960455
     0.460113636  0.505258636  0.389485455
     0.494727727  0.460088182  0.610511818
     0.539936818  0.494744091  0.389510000
     0.505256364  0.539912727  0.610514545
     0.512867273  0.597226818  0.430666364
     0.402762273  0.512863636  0.569343636
     0.487135909  0.402777273  0.430655455
     0.597223636  0.487128182  0.569355455
     0.410231818  0.570533636  0.471656818
     0.429454545  0.410232273  0.528332273
     0.589773636  0.429452727  0.471675455
     0.570529545  0.589769545  0.528359545
     0.455550909  0.605001364  0.528579091
     0.395005909  0.455564091  0.471416818
     0.544442727  0.394998636  0.528587727
     0.604994091  0.544457273  0.471438636

  ion indices of the primitive-cell ions
   primitive index   ion index
                 1           1
                 2           2
                 3           3
                 4           4
                 5           5
                 6           6
                 7           7
                 8           8
                 9           9
                10          10
                11          11
                12          12
                13          13
                14          14
                15          15
                16          16
                17          17
                18          18
                19          19
                20          20
                21          21
                22          22
                23          23
                24          24
                25          25
                26          26

----------------------------------------------------------------------------------------



 KPOINTS: auto                                    

Automatic generation of k-mesh.
 Grid dimensions read from file:
 generate k-points for:    1    1    1

 Generating k-lattice:

  Cartesian coordinates                     Fractional coordinates (reciprocal lattice)
     0.045454545  0.000000000  0.000000000     1.000000000  0.000000000  0.000000000
     0.000000000  0.045454545  0.000000000     0.000000000  1.000000000  0.000000000
     0.000000000  0.000000000  0.045454545     0.000000000  0.000000000  1.000000000

  Length of vectors
     0.045454545  0.045454545  0.045454545

  Shift w.r.t. Gamma in fractional coordinates (k-lattice)
     0.000000000  0.000000000  0.000000000

 
 Subroutine IBZKPT returns following result:
 ===========================================
 
 Found      1 irreducible k-points:
 
 Following reciprocal coordinates:
            Coordinates               Weight
  0.000000  0.000000  0.000000      1.000000
 
 Following cartesian coordinates:
            Coordinates               Weight
  0.000000  0.000000  0.000000      1.000000
 


--------------------------------------------------------------------------------------------------------




 Dimension of arrays:
   k-points           NKPTS =      1   k-points in BZ     NKDIM =      1   number of bands    NBANDS=    128
   number of dos      NEDOS =    301   number of ions     NIONS =     26
   non local maximal  LDIM  =      4   non local SUM 2l+1 LMDIM =      8
   total plane-waves  NPLWV = ******
   max r-space proj   IRMAX =      1   max aug-charges    IRDMAX=   8811
   dimension x,y,z NGX =   240 NGY =  240 NGZ =  240
   dimension x,y,z NGXF=   480 NGYF=  480 NGZF=  480
   support grid    NGXF=   480 NGYF=  480 NGZF=  480
   ions per type =              10  16
   NGX,Y,Z   is equivalent  to a cutoff of  18.14, 18.14, 18.14 a.u.
   NGXF,Y,Z  is equivalent  to a cutoff of  36.27, 36.27, 36.27 a.u.

 SYSTEM =  unknown system                          
 POSCAR =   C  H                                   

 Startparameter for this run:
   NWRITE =      2    write-flag & timer
   PREC   = accura    normal or accurate (medium, high low for compatibility)
   ISTART =      0    job   : 0-new  1-cont  2-samecut
   ICHARG =      2    charge: 1-file 2-atom 10-const
   ISPIN  =      1    spin polarized calculation?
   LNONCOLLINEAR =      F non collinear calculations
   LSORBIT =      F    spin-orbit coupling
   INIWAV =      1    electr: 0-lowe 1-rand  2-diag
   LASPH  =      F    aspherical Exc in radial PAW
 Electronic Relaxation 1
   ENCUT  = 1000.0 eV  73.50 Ry    8.57 a.u.  56.73 56.73 56.73*2*pi/ulx,y,z
   ENINI  = 1000.0     initial cutoff
   ENAUG  = 1000.0 eV  augmentation charge cutoff
   NELM   =     60;   NELMIN=  2; NELMDL= -5     # of ELM steps 
   EDIFF  = 0.1E-06   stopping-criterion for ELM
   LREAL  =      F    real-space projection
   NLSPLINE    = F    spline interpolate recip. space projectors
   LCOMPAT=      F    compatible to vasp.4.4
   GGA_COMPAT  = T    GGA compatible to vasp.4.4-vasp.4.6
   LMAXPAW     = -100 max onsite density
   LMAXMIX     =    2 max onsite mixed and CHGCAR
   VOSKOWN=      0    Vosko Wilk Nusair interpolation
   ROPT   =    0.00000   0.00000
 Ionic relaxation
   EDIFFG = 0.1E-05   stopping-criterion for IOM
   NSW    =      0    number of steps for IOM
   NBLOCK =      1;   KBLOCK =      1    inner block; outer block 
   IBRION =     -1    ionic relax: 0-MD 1-quasi-New 2-CG
   NFREE  =      0    steps in history (QN), initial steepest desc. (CG)
   ISIF   =      0    stress and relaxation
   IWAVPR =     10    prediction:  0-non 1-charg 2-wave 3-comb
   ISYM   =      2    0-nonsym 1-usesym 2-fastsym
   LCORR  =      T    Harris-Foulkes like correction to forces

   POTIM  = 0.5000    time-step for ionic-motion
   TEIN   =    0.0    initial temperature
   TEBEG  =    0.0;   TEEND  =   0.0 temperature during run
   SMASS  =  -3.00    Nose mass-parameter (am)
   estimated Nose-frequenzy (Omega)   =  0.10E-29 period in steps = 0.13E+47 mass=  -0.111E-25a.u.
   SCALEE = 1.0000    scale energy and forces
   NPACO  =    256;   APACO  = 10.0  distance and # of slots for P.C.
   PSTRESS=    0.0 pullay stress

  Mass of Ions in am
   POMASS =  12.01  1.00
  Ionic Valenz
   ZVAL   =   4.00  1.00
  Atomic Wigner-Seitz radii
   RWIGS  =  -1.00 -1.00
  virtual crystal weights 
   VCA    =   1.00  1.00
   NELECT =      56.0000    total number of electrons
   NUPDOWN=      -1.0000    fix difference up-down

 DOS related values:
   EMIN   =  10.00;   EMAX   =-10.00  energy-range for DOS
   EFERMI =   0.00;   METHOD = LEGACY      
   ISMEAR =     0;   SIGMA  =   0.01  broadening in eV -4-tet -1-fermi 0-gaus

 Electronic relaxation 2 (details)
   IALGO  =     58    algorithm
   LDIAG  =      T    sub-space diagonalisation (order eigenvalues)
   LSUBROT=      F    optimize rotation matrix (better conditioning)
   TURBO    =      0    0=normal 1=particle mesh
   IRESTART =      0    0=no restart 2=restart with 2 vectors
   NREBOOT  =      0    no. of reboots
   NMIN     =      0    reboot dimension
   EREF     =   0.00    reference energy to select bands
   IMIX   =      4    mixing-type and parameters
     AMIX     =   0.40;   BMIX     =  1.00
     AMIX_MAG =   1.60;   BMIX_MAG =  1.00
     AMIN     =   0.10
     WC   =   100.;   INIMIX=   1;  MIXPRE=   1;  MAXMIX= -45

 Intra band minimization:
   WEIMIN = 0.0000     energy-eigenvalue tresh-hold
   EBREAK =  0.20E-09  absolut break condition
   DEPER  =   0.30     relativ break condition  

   TIME   =   0.40     timestep for ELM

  volume/ion in A,a.u.               =     409.54      2763.70
  Fermi-wavevector in a.u.,A,eV,Ry     =   0.284696  0.537998  1.102778  0.081052
  Thomas-Fermi vector in A             =   1.137744

 Write flags
   LWAVE        =      F    write WAVECAR
   LDOWNSAMPLE  =      F    k-point downsampling of WAVECAR
   LCHARG       =      F    write CHGCAR
   LVTOT        =      F    write LOCPOT, total local potential
   LVHAR        =      F    write LOCPOT, Hartree potential only
   LELF         =      F    write electronic localiz. function (ELF)
   LORBIT       =      0    0 simple, 1 ext, 2 COOP (PROOUT), +10 PAW based schemes


 Dipole corrections
   LMONO  =      F    monopole corrections only (constant potential shift)
   LDIPOL =      F    correct potential (dipole corrections)
   IDIPOL =      0    1-x, 2-y, 3-z, 4-all directions 
   EPSILON=  1.0000000 bulk dielectric constant

 Exchange correlation treatment:
   GGA     =    RP    GGA type
   LEXCH   =     9    internal setting for exchange type
   LIBXC   =     F    Libxc                    
   VOSKOWN =     0    Vosko Wilk Nusair interpolation
   LHFCALC =     F    Hartree Fock is set to
   LHFONE  =     F    Hartree Fock one center treatment
   AEXX    =    0.0000 exact exchange contribution

 Linear response parameters
   LEPSILON=     F    determine dielectric tensor
   LRPA    =     F    only Hartree local field effects (RPA)
   LNABLA  =     F    use nabla operator in PAW spheres
   LVEL    =     F    velocity operator in full k-point grid
   CSHIFT  =0.1000    complex shift for real part using Kramers Kronig
   OMEGAMAX=  -1.0    maximum frequency
   DEG_THRESHOLD= 0.2000000E-02 threshold for treating states as degnerate
   RTIME   =   -0.100 relaxation time in fs
  (WPLASMAI=    0.000 imaginary part of plasma frequency in eV, 0.658/RTIME)
   DFIELD  = 0.0000000 0.0000000 0.0000000 field for delta impulse in time

  Optional k-point grid parameters
   LKPOINTS_OPT  =     F    use optional k-point grid
   KPOINTS_OPT_MODE=     1    mode for optional k-point grid

 Orbital magnetization related:
   ORBITALMAG=     F  switch on orbital magnetization
   LCHIMAG   =     F  perturbation theory with respect to B field
   DQ        =  0.001000  dq finite difference perturbation B field
   LLRAUG    =     F  two centre corrections for induced B field
   LBONE     =     F  B-component reconstruction in AE one-centre
   LVGVCALC  =     T  calculate vGv susceptibility
   LVGVAPPL  =     F  apply vGv susceptibility instead of pGv for G=0

 Random number generation:
   RANDOM_GENERATOR = DEFAULT
   PCG_SEED         = not used


--------------------------------------------------------------------------------------------------------


 Static calculation
 charge density and potential will be updated during run
 non-spin polarized calculation
 Conjugate gradient for all bands (Freysoldt, et al. PRB 79, 241103 (2009))
 preconditioned conjugated gradient                                        
 perform sub-space diagonalisation
    before iterative eigenvector-optimisation
 modified Broyden-mixing scheme, WC =      100.0
 initial mixing is a Kerker type mixing with AMIX =  0.4000 and BMIX =      1.0000
 Hartree-type preconditioning will be used
 using additional bands          100
 reciprocal scheme for non local part
 use partial core corrections
 no Harris-corrections to forces 
 use gradient corrections 
 use of overlap-Matrix (Vanderbilt PP)
 Gauss-broadening in eV      SIGMA  =   0.01


--------------------------------------------------------------------------------------------------------


  energy-cutoff  :     1000.00
  volume of cell :    10648.00
      direct lattice vectors                 reciprocal lattice vectors
    22.000000000  0.000000000  0.000000000     0.045454545  0.000000000  0.000000000
     0.000000000 22.000000000  0.000000000     0.000000000  0.045454545  0.000000000
     0.000000000  0.000000000 22.000000000     0.000000000  0.000000000  0.045454545

  length of vectors
    22.000000000 22.000000000 22.000000000     0.045454545  0.045454545  0.045454545



 k-points in units of 2pi/SCALE and weight: auto                                    
   0.00000000  0.00000000  0.00000000       1.000

 k-points in reciprocal lattice and weights: auto                                    
   0.00000000  0.00000000  0.00000000       1.000

 position of ions in fractional coordinates (direct lattice) 
   0.50001500  0.50000273  0.41924045
   0.49999136  0.49999955  0.58077591
   0.50751364  0.55672455  0.45954136
   0.44327136  0.50751455  0.54047273
   0.49249273  0.44327818  0.45953500
   0.55671818  0.49248318  0.54048227
   0.45093318  0.56413045  0.50006091
   0.43587182  0.45094045  0.49993864
   0.54906273  0.43586727  0.50006818
   0.56412500  0.54906273  0.49996045
   0.46011364  0.50525864  0.38948545
   0.49472773  0.46008818  0.61051182
   0.53993682  0.49474409  0.38951000
   0.50525636  0.53991273  0.61051455
   0.51286727  0.59722682  0.43066636
   0.40276227  0.51286364  0.56934364
   0.48713591  0.40277727  0.43065545
   0.59722364  0.48712818  0.56935545
   0.41023182  0.57053364  0.47165682
   0.42945455  0.41023227  0.52833227
   0.58977364  0.42945273  0.47167545
   0.57052955  0.58976955  0.52835955
   0.45555091  0.60500136  0.52857909
   0.39500591  0.45556409  0.47141682
   0.54444273  0.39499864  0.52858773
   0.60499409  0.54445727  0.47143864

 position of ions in cartesian coordinates  (Angst):
  11.00033000 11.00006000  9.22329000
  10.99981000 10.99999000 12.77707000
  11.16530000 12.24794000 10.10991000
   9.75197000 11.16532000 11.89040000
  10.83484000  9.75212000 10.10977000
  12.24780000 10.83463000 11.89061000
   9.92053000 12.41087000 11.00134000
   9.58918000  9.92069000 10.99865000
  12.07938000  9.58908000 11.00150000
  12.41075000 12.07938000 10.99913000
  10.12250000 11.11569000  8.56868000
  10.88401000 10.12194000 13.43126000
  11.87861000 10.88437000  8.56922000
  11.11564000 11.87808000 13.43132000
  11.28308000 13.13899000  9.47466000
   8.86077000 11.28300000 12.52556000
  10.71699000  8.86110000  9.47442000
  13.13892000 10.71682000 12.52582000
   9.02510000 12.55174000 10.37645000
   9.44800000  9.02511000 11.62331000
  12.97502000  9.44796000 10.37686000
  12.55165000 12.97493000 11.62391000
  10.02212000 13.31003000 11.62874000
   8.69013000 10.02241000 10.37117000
  11.97774000  8.68997000 11.62893000
  13.30987000 11.97806000 10.37165000



--------------------------------------------------------------------------------------------------------


 use parallel FFT for orbitals z direction half grid
 k-point   1 :   0.0000 0.0000 0.0000  plane waves:  381993

 maximum and minimum number of plane-waves per node :    191003   190990

 maximum number of plane-waves:    381993
 maximum index in each direction: 
   IXMAX=   56   IYMAX=   56   IZMAX=   56
   IXMIN=  -56   IYMIN=  -56   IZMIN=    0


 parallel 3D FFT for wavefunctions:
    minimum data exchange during FFTs selected (reduces bandwidth)
 parallel 3D FFT for charge:
    minimum data exchange during FFTs selected (reduces bandwidth)


 total amount of memory used by VASP MPI-rank0   605071. kBytes
=======================================================================

   base      :      30000. kBytes
   nonl-proj :     103960. kBytes
   fftplans  :     159096. kBytes
   grid      :     302822. kBytes
   one-center:         19. kBytes
   wavefun   :       9174. kBytes

     INWAV:  cpu time      0.0001: real time      0.0001
 Broyden mixing: mesh for mixing (old mesh)
   NGX =113   NGY =113   NGZ =113
  (NGX  =480   NGY  =480   NGZ  =480)
  gives a total of ****** points

 initial charge density was supplied:
 charge density of overlapping atoms calculated
 number of electron      56.0000000 magnetization 
 keeping initial charge density in first step


--------------------------------------------------------------------------------------------------------


 Maximum index for augmentation-charges          318 (set IRDMAX)


--------------------------------------------------------------------------------------------------------


 First call to EWALD:  gamma=   0.081
 Maximum number of real-space cells 3x 3x 3
 Maximum number of reciprocal cells 3x 3x 3

    FEWALD:  cpu time      0.0039: real time      0.0041


--------------------------------------- Ionic step        1  -------------------------------------------




--------------------------------------- Iteration      1(   1)  ---------------------------------------


    POTLOK:  cpu time      1.1230: real time      1.1256
    SETDIJ:  cpu time      0.0080: real time      0.0084
    TRIAL :  cpu time      5.6954: real time      5.7033
    CORREC:  cpu time      0.0017: real time      0.0017
    --------------------------------------------
      LOOP:  cpu time      6.8418: real time      6.8527

 eigenvalue-minimisations  :   256
 total energy-change (2. order) : 0.6159087E+03  (-0.1964862E+04)
 number of electron      56.0000000 magnetization 
 augmentation part       56.0000000 magnetization 

 Free energy of the ion-electron system (eV)
  ---------------------------------------------------
  alpha Z        PSCENC =         0.92446154
  Ewald energy   TEWEN  =      5822.64067415
  -Hartree energ DENC   =     -6863.70436586
  -exchange      EXHF   =         0.00000000
  -V(xc)+E(xc)   XCENC  =       109.58746940
  PAW double counting   =      1157.27547481    -1103.92948623
  entropy T*S    EENTRO =        -0.00000000
  eigenvalues    EBANDS =      -179.68320371
  atomic energy  EATOM  =      1672.79765274
  ---------------------------------------------------
  free energy    TOTEN  =       615.90867683 eV

  energy without entropy =      615.90867683  energy(sigma->0) =      615.90867683


--------------------------------------------------------------------------------------------------------




--------------------------------------- Iteration      1(   2)  ---------------------------------------


    TRIAL :  cpu time     10.3263: real time     10.3354
    CORREC:  cpu time      0.0002: real time      0.0002
    --------------------------------------------
      LOOP:  cpu time     10.3422: real time     10.3653

 eigenvalue-minimisations  :   512
 total energy-change (2. order) :-0.7056764E+03  (-0.7056764E+03)
 number of electron      56.0000000 magnetization 
 augmentation part       56.0000000 magnetization 

 Free energy of the ion-electron system (eV)
  ---------------------------------------------------
  alpha Z        PSCENC =         0.92446154
  Ewald energy   TEWEN  =      5822.64067415
  -Hartree energ DENC   =     -6863.70436586
  -exchange      EXHF   =         0.00000000
  -V(xc)+E(xc)   XCENC  =       109.58746940
  PAW double counting   =      1157.27547481    -1103.92948623
  entropy T*S    EENTRO =        -0.00000000
  eigenvalues    EBANDS =      -885.35956496
  atomic energy  EATOM  =      1672.79765274
  ---------------------------------------------------
  free energy    TOTEN  =       -89.76768442 eV

  energy without entropy =      -89.76768442  energy(sigma->0) =      -89.76768442


--------------------------------------------------------------------------------------------------------




--------------------------------------- Iteration      1(   3)  ---------------------------------------


    TRIAL :  cpu time      5.6461: real time      5.6494
    CORREC:  cpu time      0.0001: real time      0.0001
    --------------------------------------------
      LOOP:  cpu time      5.6673: real time      5.6789

 eigenvalue-minimisations  :   256
 total energy-change (2. order) :-0.6987083E+02  (-0.6987083E+02)
 number of electron      56.0000000 magnetization 
 augmentation part       56.0000000 magnetization 

 Free energy of the ion-electron system (eV)
  ---------------------------------------------------
  alpha Z        PSCENC =         0.92446154
  Ewald energy   TEWEN  =      5822.64067415
  -Hartree energ DENC   =     -6863.70436586
  -exchange      EXHF   =         0.00000000
  -V(xc)+E(xc)   XCENC  =       109.58746940
  PAW double counting   =      1157.27547481    -1103.92948623
  entropy T*S    EENTRO =        -0.00000000
  eigenvalues    EBANDS =      -955.23039072
  atomic energy  EATOM  =      1672.79765274
  ---------------------------------------------------
  free energy    TOTEN  =      -159.63851018 eV

  energy without entropy =     -159.63851018  energy(sigma->0) =     -159.63851018


--------------------------------------------------------------------------------------------------------




--------------------------------------- Iteration      1(   4)  ---------------------------------------


    TRIAL :  cpu time     10.3044: real time     10.3105
    CORREC:  cpu time      0.0002: real time      0.0001
    --------------------------------------------
      LOOP:  cpu time     10.3332: real time     10.3396

 eigenvalue-minimisations  :   512
 total energy-change (2. order) :-0.2490422E+01  (-0.2490422E+01)
 number of electron      56.0000000 magnetization 
 augmentation part       56.0000000 magnetization 

 Free energy of the ion-electron system (eV)
  ---------------------------------------------------
  alpha Z        PSCENC =         0.92446154
  Ewald energy   TEWEN  =      5822.64067415
  -Hartree energ DENC   =     -6863.70436586
  -exchange      EXHF   =         0.00000000
  -V(xc)+E(xc)   XCENC  =       109.58746940
  PAW double counting   =      1157.27547481    -1103.92948623
  entropy T*S    EENTRO =        -0.00000000
  eigenvalues    EBANDS =      -957.72081310
  atomic energy  EATOM  =      1672.79765274
  ---------------------------------------------------
  free energy    TOTEN  =      -162.12893257 eV

  energy without entropy =     -162.12893257  energy(sigma->0) =     -162.12893257


--------------------------------------------------------------------------------------------------------




--------------------------------------- Iteration      1(   5)  ---------------------------------------


    TRIAL :  cpu time      5.6636: real time      5.6676
    CORREC:  cpu time      0.0002: real time      0.0002
    CHARGE:  cpu time      1.4210: real time      1.4236
    --------------------------------------------
      LOOP:  cpu time      7.0988: real time      7.1208

 eigenvalue-minimisations  :   256
 total energy-change (2. order) :-0.8252114E-03  (-0.8251494E-03)
 number of electron      56.0000000 magnetization 
 augmentation part        0.0271190 magnetization 

 Free energy of the ion-electron system (eV)
  ---------------------------------------------------
  alpha Z        PSCENC =         0.92446154
  Ewald energy   TEWEN  =      5822.64067415
  -Hartree energ DENC   =     -6863.70436586
  -exchange      EXHF   =         0.00000000
  -V(xc)+E(xc)   XCENC  =       109.58746940
  PAW double counting   =      1157.27547481    -1103.92948623
  entropy T*S    EENTRO =        -0.00000000
  eigenvalues    EBANDS =      -957.72163832
  atomic energy  EATOM  =      1672.79765274
  ---------------------------------------------------
  free energy    TOTEN  =      -162.12975778 eV

  energy without entropy =     -162.12975778  energy(sigma->0) =     -162.12975778


--------------------------------------------------------------------------------------------------------




--------------------------------------- Iteration      1(   6)  ---------------------------------------


    POTLOK:  cpu time      0.7296: real time      0.7303
    SETDIJ:  cpu time      0.0019: real time      0.0019
    TRIAL :  cpu time      3.0720: real time      3.0789
    CORREC:  cpu time      2.7935: real time      2.7949
    CHARGE:  cpu time      1.3973: real time      1.3986
    --------------------------------------------
      LOOP:  cpu time      8.0083: real time      8.0326

 eigenvalue-minimisations  :     0
 total energy-change (2. order) : 0.2796242E+02  (-0.1097984E+02)
 number of electron      56.0000000 magnetization 
 augmentation part        0.0106635 magnetization 

 Free energy of the ion-electron system (eV)
  ---------------------------------------------------
  alpha Z        PSCENC =         0.92446154
  Ewald energy   TEWEN  =      5822.64067415
  -Hartree energ DENC   =     -7494.68108984
  -exchange      EXHF   =         0.00000000
  -V(xc)+E(xc)   XCENC  =       130.13310991
  PAW double counting   =     17209.51700343   -17157.36257985
  entropy T*S    EENTRO =        -0.00000000
  eigenvalues    EBANDS =      -318.13657314
  atomic energy  EATOM  =      1672.79765274
  ---------------------------------------------------
  free energy    TOTEN  =      -134.16734107 eV

  energy without entropy =     -134.16734107  energy(sigma->0) =     -134.16734107


--------------------------------------------------------------------------------------------------------




--------------------------------------- Iteration      1(   7)  ---------------------------------------


    POTLOK:  cpu time      0.7332: real time      0.7336
    SETDIJ:  cpu time      0.0032: real time      0.0032
    TRIAL :  cpu time      3.0186: real time      3.0202
    CORREC:  cpu time      2.7889: real time      2.7898
    CHARGE:  cpu time      1.3987: real time      1.3994
    --------------------------------------------
      LOOP:  cpu time      7.9708: real time      7.9745

 eigenvalue-minimisations  :     0
 total energy-change (2. order) :-0.1100153E+02  (-0.1664874E+01)
 number of electron      56.0000000 magnetization 
 augmentation part       -0.0069354 magnetization 

 Free energy of the ion-electron system (eV)
  ---------------------------------------------------
  alpha Z        PSCENC =         0.92446154
  Ewald energy   TEWEN  =      5822.64067415
  -Hartree energ DENC   =     -7223.46976531
  -exchange      EXHF   =         0.00000000
  -V(xc)+E(xc)   XCENC  =       123.44005053
  PAW double counting   =     20986.53845194   -20933.75753257
  entropy T*S    EENTRO =        -0.00000000
  eigenvalues    EBANDS =      -594.28286700
  atomic energy  EATOM  =      1672.79765274
  ---------------------------------------------------
  free energy    TOTEN  =      -145.16887400 eV

  energy without entropy =     -145.16887400  energy(sigma->0) =     -145.16887400


--------------------------------------------------------------------------------------------------------




--------------------------------------- Iteration      1(   8)  ---------------------------------------


    POTLOK:  cpu time      0.7326: real time      0.7335
    SETDIJ:  cpu time      0.0021: real time      0.0021
    TRIAL :  cpu time      3.0241: real time      3.0257
    CORREC:  cpu time      2.7740: real time      2.7748
    CHARGE:  cpu time      1.3858: real time      1.3865
    --------------------------------------------
      LOOP:  cpu time      7.9477: real time      7.9517

 eigenvalue-minimisations  :     0
 total energy-change (2. order) :-0.1674807E+01  (-0.7266720E+00)
 number of electron      56.0000000 magnetization 
 augmentation part       -0.0065048 magnetization 

 Free energy of the ion-electron system (eV)
  ---------------------------------------------------
  alpha Z        PSCENC =         0.92446154
  Ewald energy   TEWEN  =      5822.64067415
  -Hartree energ DENC   =     -7212.77639832
  -exchange      EXHF   =         0.00000000
  -V(xc)+E(xc)   XCENC  =       123.08665451
  PAW double counting   =     22326.10907028   -22273.22344583
  entropy T*S    EENTRO =        -0.00000000
  eigenvalues    EBANDS =      -606.40235013
  atomic energy  EATOM  =      1672.79765274
  ---------------------------------------------------
  free energy    TOTEN  =      -146.84368109 eV

  energy without entropy =     -146.84368109  energy(sigma->0) =     -146.84368109


--------------------------------------------------------------------------------------------------------




--------------------------------------- Iteration      1(   9)  ---------------------------------------


    POTLOK:  cpu time      0.7353: real time      0.7354
    SETDIJ:  cpu time      0.0022: real time      0.0022
    TRIAL :  cpu time      3.0193: real time      3.0207
    CORREC:  cpu time      2.7872: real time      2.7889
    CHARGE:  cpu time      1.4025: real time      1.4032
    --------------------------------------------
      LOOP:  cpu time      7.9596: real time      7.9795

 eigenvalue-minimisations  :     0
 total energy-change (2. order) :-0.6815383E+00  (-0.1878345E+00)
 number of electron      56.0000000 magnetization 
 augmentation part       -0.0048787 magnetization 

 Free energy of the ion-electron system (eV)
  ---------------------------------------------------
  alpha Z        PSCENC =         0.92446154
  Ewald energy   TEWEN  =      5822.64067415
  -Hartree energ DENC   =     -7170.61188527
  -exchange      EXHF   =         0.00000000
  -V(xc)+E(xc)   XCENC  =       121.97054749
  PAW double counting   =     22170.54529486   -22117.57780203
  entropy T*S    EENTRO =        -0.00000000
  eigenvalues    EBANDS =      -648.21416286
  atomic energy  EATOM  =      1672.79765274
  ---------------------------------------------------
  free energy    TOTEN  =      -147.52521939 eV

  energy without entropy =     -147.52521939  energy(sigma->0) =     -147.52521939


--------------------------------------------------------------------------------------------------------




--------------------------------------- Iteration      1(  10)  ---------------------------------------


    POTLOK:  cpu time      0.7427: real time      0.7428
    SETDIJ:  cpu time      0.0022: real time      0.0022
    TRIAL :  cpu time      3.0174: real time      3.0191
    CORREC:  cpu time      2.8010: real time      2.8025
    CHARGE:  cpu time      1.3813: real time      1.3822
    --------------------------------------------
      LOOP:  cpu time      7.9735: real time      7.9778

 eigenvalue-minimisations  :     0
 total energy-change (2. order) :-0.1868304E+00  (-0.5986931E-01)
 number of electron      56.0000000 magnetization 
 augmentation part       -0.0032657 magnetization 

 Free energy of the ion-electron system (eV)
  ---------------------------------------------------
  alpha Z        PSCENC =         0.92446154
  Ewald energy   TEWEN  =      5822.64067415
  -Hartree energ DENC   =     -7169.27473671
  -exchange      EXHF   =         0.00000000
  -V(xc)+E(xc)   XCENC  =       121.96589501
  PAW double counting   =     21369.20777567   -21316.27795971
  entropy T*S    EENTRO =        -0.00000000
  eigenvalues    EBANDS =      -649.69581247
  atomic energy  EATOM  =      1672.79765274
  ---------------------------------------------------
  free energy    TOTEN  =      -147.71204979 eV

  energy without entropy =     -147.71204979  energy(sigma->0) =     -147.71204979


--------------------------------------------------------------------------------------------------------




--------------------------------------- Iteration      1(  11)  ---------------------------------------


    POTLOK:  cpu time      0.7412: real time      0.7413
    SETDIJ:  cpu time      0.0021: real time      0.0021
    TRIAL :  cpu time      3.0189: real time      3.0209
    CORREC:  cpu time      2.8052: real time      2.8065
    CHARGE:  cpu time      1.4024: real time      1.4031
    --------------------------------------------
      LOOP:  cpu time      7.9872: real time      8.0022

 eigenvalue-minimisations  :     0
 total energy-change (2. order) :-0.6016246E-01  (-0.2411138E-01)
 number of electron      56.0000000 magnetization 
 augmentation part       -0.0018731 magnetization 

 Free energy of the ion-electron system (eV)
  ---------------------------------------------------
  alpha Z        PSCENC =         0.92446154
  Ewald energy   TEWEN  =      5822.64067415
  -Hartree energ DENC   =     -7174.72012285
  -exchange      EXHF   =         0.00000000
  -V(xc)+E(xc)   XCENC  =       122.10036470
  PAW double counting   =     20886.20474400   -20833.31223147
  entropy T*S    EENTRO =        -0.00000000
  eigenvalues    EBANDS =      -644.40775505
  atomic energy  EATOM  =      1672.79765274
  ---------------------------------------------------
  free energy    TOTEN  =      -147.77221226 eV

  energy without entropy =     -147.77221226  energy(sigma->0) =     -147.77221226


--------------------------------------------------------------------------------------------------------




--------------------------------------- Iteration      1(  12)  ---------------------------------------


    POTLOK:  cpu time      0.7509: real time      0.7510
    SETDIJ:  cpu time      0.0021: real time      0.0021
    TRIAL :  cpu time      3.0184: real time      3.0204
    CORREC:  cpu time      2.8024: real time      2.8039
    CHARGE:  cpu time      1.3948: real time      1.3956
    --------------------------------------------
      LOOP:  cpu time      7.9822: real time      8.0022

 eigenvalue-minimisations  :     0
 total energy-change (2. order) :-0.2424545E-01  (-0.1004195E-01)
 number of electron      56.0000000 magnetization 
 augmentation part       -0.0009667 magnetization 

 Free energy of the ion-electron system (eV)
  ---------------------------------------------------
  alpha Z        PSCENC =         0.92446154
  Ewald energy   TEWEN  =      5822.64067415
  -Hartree energ DENC   =     -7172.78443019
  -exchange      EXHF   =         0.00000000
  -V(xc)+E(xc)   XCENC  =       122.02441722
  PAW double counting   =     20781.11055766   -20728.22443880
  entropy T*S    EENTRO =        -0.00000000
  eigenvalues    EBANDS =      -646.28535201
  atomic energy  EATOM  =      1672.79765274
  ---------------------------------------------------
  free energy    TOTEN  =      -147.79645771 eV

  energy without entropy =     -147.79645771  energy(sigma->0) =     -147.79645771


--------------------------------------------------------------------------------------------------------




--------------------------------------- Iteration      1(  13)  ---------------------------------------


    POTLOK:  cpu time      0.7534: real time      0.7535
    SETDIJ:  cpu time      0.0022: real time      0.0022
    TRIAL :  cpu time      3.0237: real time      3.0252
    CORREC:  cpu time      2.7916: real time      2.7932
    CHARGE:  cpu time      1.4005: real time      1.4012
    --------------------------------------------
      LOOP:  cpu time      7.9915: real time      8.0059

 eigenvalue-minimisations  :     0
 total energy-change (2. order) :-0.1008503E-01  (-0.3820291E-02)
 number of electron      56.0000000 magnetization 
 augmentation part       -0.0005482 magnetization 

 Free energy of the ion-electron system (eV)
  ---------------------------------------------------
  alpha Z        PSCENC =         0.92446154
  Ewald energy   TEWEN  =      5822.64067415
  -Hartree energ DENC   =     -7175.40579531
  -exchange      EXHF   =         0.00000000
  -V(xc)+E(xc)   XCENC  =       122.05941604
  PAW double counting   =     20889.99661041   -20837.11167843
  entropy T*S    EENTRO =        -0.00000000
  eigenvalues    EBANDS =      -643.70788388
  atomic energy  EATOM  =      1672.79765274
  ---------------------------------------------------
  free energy    TOTEN  =      -147.80654274 eV

  energy without entropy =     -147.80654274  energy(sigma->0) =     -147.80654274


--------------------------------------------------------------------------------------------------------




--------------------------------------- Iteration      1(  14)  ---------------------------------------


    POTLOK:  cpu time      0.7507: real time      0.7508
    SETDIJ:  cpu time      0.0022: real time      0.0022
    TRIAL :  cpu time      3.0172: real time      3.0192
    CORREC:  cpu time      2.7995: real time      2.8010
    CHARGE:  cpu time      1.4029: real time      1.4039
    --------------------------------------------
      LOOP:  cpu time      7.9864: real time      8.0065

 eigenvalue-minimisations  :     0
 total energy-change (2. order) :-0.3820424E-02  (-0.1278873E-02)
 number of electron      56.0000000 magnetization 
 augmentation part       -0.0003719 magnetization 

 Free energy of the ion-electron system (eV)
  ---------------------------------------------------
  alpha Z        PSCENC =         0.92446154
  Ewald energy   TEWEN  =      5822.64067415
  -Hartree energ DENC   =     -7177.19442785
  -exchange      EXHF   =         0.00000000
  -V(xc)+E(xc)   XCENC  =       122.10285307
  PAW double counting   =     20993.11534672   -20940.22861876
  entropy T*S    EENTRO =        -0.00000000
  eigenvalues    EBANDS =      -641.96830476
  atomic energy  EATOM  =      1672.79765274
  ---------------------------------------------------
  free energy    TOTEN  =      -147.81036317 eV

  energy without entropy =     -147.81036317  energy(sigma->0) =     -147.81036317


--------------------------------------------------------------------------------------------------------




--------------------------------------- Iteration      1(  15)  ---------------------------------------


    POTLOK:  cpu time      0.7486: real time      0.7487
    SETDIJ:  cpu time      0.0033: real time      0.0033
    TRIAL :  cpu time      3.0222: real time      3.0237
    CORREC:  cpu time      2.7893: real time      2.7905
    CHARGE:  cpu time      1.4050: real time      1.4057
    --------------------------------------------
      LOOP:  cpu time      7.9966: real time      8.0003

 eigenvalue-minimisations  :     0
 total energy-change (2. order) :-0.1280227E-02  (-0.4554203E-03)
 number of electron      56.0000000 magnetization 
 augmentation part       -0.0002571 magnetization 

 Free energy of the ion-electron system (eV)
  ---------------------------------------------------
  alpha Z        PSCENC =         0.92446154
  Ewald energy   TEWEN  =      5822.64067415
  -Hartree energ DENC   =     -7176.63397222
  -exchange      EXHF   =         0.00000000
  -V(xc)+E(xc)   XCENC  =       122.09896298
  PAW double counting   =     21020.54016370   -20967.65026940
  entropy T*S    EENTRO =        -0.00000000
  eigenvalues    EBANDS =      -642.52931686
  atomic energy  EATOM  =      1672.79765274
  ---------------------------------------------------
  free energy    TOTEN  =      -147.81164339 eV

  energy without entropy =     -147.81164339  energy(sigma->0) =     -147.81164339


--------------------------------------------------------------------------------------------------------




--------------------------------------- Iteration      1(  16)  ---------------------------------------


    POTLOK:  cpu time      0.7255: real time      0.7256
    SETDIJ:  cpu time      0.0022: real time      0.0022
    TRIAL :  cpu time      3.0213: real time      3.0231
    CORREC:  cpu time      2.7597: real time      2.7613
    CHARGE:  cpu time      1.3888: real time      1.3895
    --------------------------------------------
      LOOP:  cpu time      7.9104: real time      7.9306

 eigenvalue-minimisations  :     0
 total energy-change (2. order) :-0.4562699E-03  (-0.1626025E-03)
 number of electron      56.0000000 magnetization 
 augmentation part       -0.0003129 magnetization 

 Free energy of the ion-electron system (eV)
  ---------------------------------------------------
  alpha Z        PSCENC =         0.92446154
  Ewald energy   TEWEN  =      5822.64067415
  -Hartree energ DENC   =     -7177.13483838
  -exchange      EXHF   =         0.00000000
  -V(xc)+E(xc)   XCENC  =       122.11517817
  PAW double counting   =     21010.11276076   -20957.22276049
  entropy T*S    EENTRO =        -0.00000000
  eigenvalues    EBANDS =      -642.04522814
  atomic energy  EATOM  =      1672.79765274
  ---------------------------------------------------
  free energy    TOTEN  =      -147.81209966 eV

  energy without entropy =     -147.81209966  energy(sigma->0) =     -147.81209966


--------------------------------------------------------------------------------------------------------




--------------------------------------- Iteration      1(  17)  ---------------------------------------


    POTLOK:  cpu time      0.7204: real time      0.7204
    SETDIJ:  cpu time      0.0021: real time      0.0021
    TRIAL :  cpu time      3.0230: real time      3.0248
    CORREC:  cpu time      2.7760: real time      2.7775
    CHARGE:  cpu time      1.3911: real time      1.3918
    --------------------------------------------
      LOOP:  cpu time      7.9250: real time      7.9450

 eigenvalue-minimisations  :     0
 total energy-change (2. order) :-0.1623054E-03  (-0.6045170E-04)
 number of electron      56.0000000 magnetization 
 augmentation part       -0.0004413 magnetization 

 Free energy of the ion-electron system (eV)
  ---------------------------------------------------
  alpha Z        PSCENC =         0.92446154
  Ewald energy   TEWEN  =      5822.64067415
  -Hartree energ DENC   =     -7177.08736148
  -exchange      EXHF   =         0.00000000
  -V(xc)+E(xc)   XCENC  =       122.11620765
  PAW double counting   =     20997.76036789   -20944.87019454
  entropy T*S    EENTRO =        -0.00000000
  eigenvalues    EBANDS =      -642.09406990
  atomic energy  EATOM  =      1672.79765274
  ---------------------------------------------------
  free energy    TOTEN  =      -147.81226197 eV

  energy without entropy =     -147.81226197  energy(sigma->0) =     -147.81226197


--------------------------------------------------------------------------------------------------------




--------------------------------------- Iteration      1(  18)  ---------------------------------------


    POTLOK:  cpu time      0.7144: real time      0.7144
    SETDIJ:  cpu time      0.0022: real time      0.0022
    TRIAL :  cpu time      3.0183: real time      3.0202
    CORREC:  cpu time      2.7666: real time      2.7681
    CHARGE:  cpu time      1.3899: real time      1.3905
    --------------------------------------------
      LOOP:  cpu time      7.9197: real time      7.9240

 eigenvalue-minimisations  :     0
 total energy-change (2. order) :-0.5979520E-04  (-0.2446751E-04)
 number of electron      56.0000000 magnetization 
 augmentation part       -0.0005305 magnetization 

 Free energy of the ion-electron system (eV)
  ---------------------------------------------------
  alpha Z        PSCENC =         0.92446154
  Ewald energy   TEWEN  =      5822.64067415
  -Hartree energ DENC   =     -7176.87522501
  -exchange      EXHF   =         0.00000000
  -V(xc)+E(xc)   XCENC  =       122.11179788
  PAW double counting   =     20994.58758228   -20941.69718283
  entropy T*S    EENTRO =        -0.00000000
  eigenvalues    EBANDS =      -642.30208250
  atomic energy  EATOM  =      1672.79765274
  ---------------------------------------------------
  free energy    TOTEN  =      -147.81232177 eV

  energy without entropy =     -147.81232177  energy(sigma->0) =     -147.81232177


--------------------------------------------------------------------------------------------------------




--------------------------------------- Iteration      1(  19)  ---------------------------------------


    POTLOK:  cpu time      0.7138: real time      0.7143
    SETDIJ:  cpu time      0.0023: real time      0.0023
    TRIAL :  cpu time      3.0228: real time      3.0246
    CORREC:  cpu time      2.7649: real time      2.7664
    CHARGE:  cpu time      1.3949: real time      1.3953
    --------------------------------------------
      LOOP:  cpu time      7.9119: real time      7.9309

 eigenvalue-minimisations  :     0
 total energy-change (2. order) :-0.2358077E-04  (-0.9185112E-05)
 number of electron      56.0000000 magnetization 
 augmentation part       -0.0005785 magnetization 

 Free energy of the ion-electron system (eV)
  ---------------------------------------------------
  alpha Z        PSCENC =         0.92446154
  Ewald energy   TEWEN  =      5822.64067415
  -Hartree energ DENC   =     -7176.97843603
  -exchange      EXHF   =         0.00000000
  -V(xc)+E(xc)   XCENC  =       122.11371110
  PAW double counting   =     20995.32692814   -20942.43678625
  entropy T*S    EENTRO =        -0.00000000
  eigenvalues    EBANDS =      -642.20055072
  atomic energy  EATOM  =      1672.79765274
  ---------------------------------------------------
  free energy    TOTEN  =      -147.81234535 eV

  energy without entropy =     -147.81234535  energy(sigma->0) =     -147.81234535


--------------------------------------------------------------------------------------------------------




--------------------------------------- Iteration      1(  20)  ---------------------------------------


    POTLOK:  cpu time      0.7105: real time      0.7109
    SETDIJ:  cpu time      0.0022: real time      0.0022
    TRIAL :  cpu time      3.0180: real time      3.0198
    CORREC:  cpu time      2.7757: real time      2.7770
    CHARGE:  cpu time      1.4025: real time      1.4030
    --------------------------------------------
      LOOP:  cpu time      7.9245: real time      7.9413

 eigenvalue-minimisations  :     0
 total energy-change (2. order) :-0.8989071E-05  (-0.3659828E-05)
 number of electron      56.0000000 magnetization 
 augmentation part       -0.0005766 magnetization 

 Free energy of the ion-electron system (eV)
  ---------------------------------------------------
  alpha Z        PSCENC =         0.92446154
  Ewald energy   TEWEN  =      5822.64067415
  -Hartree energ DENC   =     -7176.87426407
  -exchange      EXHF   =         0.00000000
  -V(xc)+E(xc)   XCENC  =       122.11101076
  PAW double counting   =     20995.10637636   -20942.21620869
  entropy T*S    EENTRO =        -0.00000000
  eigenvalues    EBANDS =      -642.30205713
  atomic energy  EATOM  =      1672.79765274
  ---------------------------------------------------
  free energy    TOTEN  =      -147.81235434 eV

  energy without entropy =     -147.81235434  energy(sigma->0) =     -147.81235434


--------------------------------------------------------------------------------------------------------




--------------------------------------- Iteration      1(  21)  ---------------------------------------


    POTLOK:  cpu time      0.7100: real time      0.7106
    SETDIJ:  cpu time      0.0024: real time      0.0024
    TRIAL :  cpu time      3.0192: real time      3.0211
    CORREC:  cpu time      2.7494: real time      2.7512
    CHARGE:  cpu time      1.3960: real time      1.3964
    --------------------------------------------
      LOOP:  cpu time      7.9049: real time      7.9097

 eigenvalue-minimisations  :     0
 total energy-change (2. order) :-0.3569789E-05  (-0.1277771E-05)
 number of electron      56.0000000 magnetization 
 augmentation part       -0.0005621 magnetization 

 Free energy of the ion-electron system (eV)
  ---------------------------------------------------
  alpha Z        PSCENC =         0.92446154
  Ewald energy   TEWEN  =      5822.64067415
  -Hartree energ DENC   =     -7176.88018541
  -exchange      EXHF   =         0.00000000
  -V(xc)+E(xc)   XCENC  =       122.11092809
  PAW double counting   =     20993.59787409   -20940.70780334
  entropy T*S    EENTRO =        -0.00000000
  eigenvalues    EBANDS =      -642.29595976
  atomic energy  EATOM  =      1672.79765274
  ---------------------------------------------------
  free energy    TOTEN  =      -147.81235790 eV

  energy without entropy =     -147.81235790  energy(sigma->0) =     -147.81235790


--------------------------------------------------------------------------------------------------------




--------------------------------------- Iteration      1(  22)  ---------------------------------------


    POTLOK:  cpu time      0.7117: real time      0.7120
    SETDIJ:  cpu time      0.0022: real time      0.0022
    TRIAL :  cpu time      3.0143: real time      3.0162
    CORREC:  cpu time      2.7751: real time      2.7769
    CHARGE:  cpu time      1.3885: real time      1.3890
    --------------------------------------------
      LOOP:  cpu time      7.9087: real time      7.9251

 eigenvalue-minimisations  :     0
 total energy-change (2. order) :-0.1253800E-05  (-0.4421372E-06)
 number of electron      56.0000000 magnetization 
 augmentation part       -0.0005543 magnetization 

 Free energy of the ion-electron system (eV)
  ---------------------------------------------------
  alpha Z        PSCENC =         0.92446154
  Ewald energy   TEWEN  =      5822.64067415
  -Hartree energ DENC   =     -7176.90256632
  -exchange      EXHF   =         0.00000000
  -V(xc)+E(xc)   XCENC  =       122.11130648
  PAW double counting   =     20992.84690765   -20939.95689425
  entropy T*S    EENTRO =        -0.00000000
  eigenvalues    EBANDS =      -642.27390113
  atomic energy  EATOM  =      1672.79765274
  ---------------------------------------------------
  free energy    TOTEN  =      -147.81235916 eV

  energy without entropy =     -147.81235916  energy(sigma->0) =     -147.81235916


--------------------------------------------------------------------------------------------------------




--------------------------------------- Iteration      1(  23)  ---------------------------------------


    POTLOK:  cpu time      0.7102: real time      0.7108
    SETDIJ:  cpu time      0.0021: real time      0.0021
    TRIAL :  cpu time      3.0183: real time      3.0204
    CORREC:  cpu time      2.7561: real time      2.7575
    CHARGE:  cpu time      1.4110: real time      1.4113
    --------------------------------------------
      LOOP:  cpu time      7.9119: real time      7.9310

 eigenvalue-minimisations  :     0
 total energy-change (2. order) :-0.4142057E-06  (-0.2270249E-06)
 number of electron      56.0000000 magnetization 
 augmentation part       -0.0005484 magnetization 

 Free energy of the ion-electron system (eV)
  ---------------------------------------------------
  alpha Z        PSCENC =         0.92446154
  Ewald energy   TEWEN  =      5822.64067415
  -Hartree energ DENC   =     -7176.89066301
  -exchange      EXHF   =         0.00000000
  -V(xc)+E(xc)   XCENC  =       122.11099521
  PAW double counting   =     20993.11081424   -20940.22077580
  entropy T*S    EENTRO =        -0.00000000
  eigenvalues    EBANDS =      -642.28551864
  atomic energy  EATOM  =      1672.79765274
  ---------------------------------------------------
  free energy    TOTEN  =      -147.81235957 eV

  energy without entropy =     -147.81235957  energy(sigma->0) =     -147.81235957


--------------------------------------------------------------------------------------------------------




--------------------------------------- Iteration      1(  24)  ---------------------------------------


    POTLOK:  cpu time      0.7113: real time      0.7122
    SETDIJ:  cpu time      0.0022: real time      0.0022
    TRIAL :  cpu time      3.0177: real time      3.0199
    CORREC:  cpu time      2.7588: real time      2.7602
    CHARGE:  cpu time      1.3866: real time      1.3869
    --------------------------------------------
      LOOP:  cpu time      7.8899: real time      7.9098

 eigenvalue-minimisations  :     0
 total energy-change (2. order) :-0.1949011E-06  (-0.1338083E-06)
 number of electron      56.0000000 magnetization 
 augmentation part       -0.0005434 magnetization 

 Free energy of the ion-electron system (eV)
  ---------------------------------------------------
  alpha Z        PSCENC =         0.92446154
  Ewald energy   TEWEN  =      5822.64067415
  -Hartree energ DENC   =     -7176.89406124
  -exchange      EXHF   =         0.00000000
  -V(xc)+E(xc)   XCENC  =       122.11107380
  PAW double counting   =     20993.85821521   -20940.96816049
  entropy T*S    EENTRO =        -0.00000000
  eigenvalues    EBANDS =      -642.28221547
  atomic energy  EATOM  =      1672.79765274
  ---------------------------------------------------
  free energy    TOTEN  =      -147.81235977 eV

  energy without entropy =     -147.81235977  energy(sigma->0) =     -147.81235977


--------------------------------------------------------------------------------------------------------




--------------------------------------- Iteration      1(  25)  ---------------------------------------


    POTLOK:  cpu time      0.7140: real time      0.7144
    SETDIJ:  cpu time      0.0022: real time      0.0022
    TRIAL :  cpu time      3.0159: real time      3.0181
    CORREC:  cpu time      2.7441: real time      2.7454
    EDDIAG:  cpu time      1.0380: real time      1.0384
    CHARGE:  cpu time      1.3996: real time      1.3999
    --------------------------------------------
      LOOP:  cpu time      8.9270: real time      8.9459

 eigenvalue-minimisations  :     0
 total energy-change (2. order) :-0.4009416E-07  (-0.5808901E-07)
 number of electron      56.0000000 magnetization 
 augmentation part       -0.0005449 magnetization 

 Free energy of the ion-electron system (eV)
  ---------------------------------------------------
  alpha Z        PSCENC =         0.92446154
  Ewald energy   TEWEN  =      5822.64067415
  -Hartree energ DENC   =     -7176.90721676
  -exchange      EXHF   =         0.00000000
  -V(xc)+E(xc)   XCENC  =       122.11141913
  PAW double counting   =     20994.84991268   -20941.95985025
  entropy T*S    EENTRO =        -0.00000000
  eigenvalues    EBANDS =      -642.26941304
  atomic energy  EATOM  =      1672.79765274
  ---------------------------------------------------
  free energy    TOTEN  =      -147.81235981 eV

  energy without entropy =     -147.81235981  energy(sigma->0) =     -147.81235981


--------------------------------------------------------------------------------------------------------


  average scaling for gradient   1.3786


 average (electrostatic) potential at core
  the test charge radii are     0.5770  0.4325
  (the norm of the test charge is              1.0000)
       1 -85.7128       2 -85.7129       3 -85.9029       4 -85.9032       5 -85.9031
       6 -85.9032       7 -85.7121       8 -85.7121       9 -85.7123      10 -85.7121
      11 -44.3874      12 -44.3879      13 -44.3871      14 -44.3874      15 -44.3493
      16 -44.3490      17 -44.3490      18 -44.3491      19 -44.3880      20 -44.3877
      21 -44.3876      22 -44.3876      23 -44.3874      24 -44.3876      25 -44.3875
      26 -44.3872



 E-fermi :  -6.3428     XC(G=0):  -0.2588     alpha+bet : -0.1396

 Fermi energy:        -6.3427701558

 k-point     1 :       0.0000    0.0000    0.0000
  band No.  band energies     occupation 
      1     -21.4231      2.00000
      2     -18.7753      2.00000
      3     -18.7752      2.00000
      4     -18.7750      2.00000
      5     -16.1460      2.00000
      6     -16.1453      2.00000
      7     -14.0300      2.00000
      8     -14.0295      2.00000
      9     -14.0294      2.00000
     10     -12.5802      2.00000
     11     -10.8573      2.00000
     12     -10.7236      2.00000
     13     -10.7225      2.00000
     14     -10.7222      2.00000
     15      -9.6040      2.00000
     16      -9.6036      2.00000
     17      -9.6035      2.00000
     18      -9.1913      2.00000
     19      -9.1912      2.00000
     20      -9.1911      2.00000
     21      -7.6278      2.00000
     22      -7.6254      2.00000
     23      -7.5269      2.00000
     24      -7.5266      2.00000
     25      -7.5262      2.00000
     26      -6.3968      2.00000
     27      -6.3963      2.00000
     28      -6.3961      2.00000
     29      -0.7338      0.00000
     30      -0.1051      0.00000
     31      -0.1050      0.00000
     32      -0.1050      0.00000
     33       0.1443      0.00000
     34       0.2697      0.00000
     35       0.3091      0.00000
     36       0.3478      0.00000
     37       0.3478      0.00000
     38       0.4302      0.00000
     39       0.4773      0.00000
     40       0.4773      0.00000
     41       0.4788      0.00000
     42       0.5372      0.00000
     43       0.5483      0.00000
     44       0.5811      0.00000
     45       0.6758      0.00000
     46       0.6818      0.00000
     47       0.6818      0.00000
     48       0.8110      0.00000
     49       0.8190      0.00000
     50       0.8190      0.00000
     51       0.8478      0.00000
     52       0.8676      0.00000
     53       0.8891      0.00000
     54       0.8891      0.00000
     55       0.8918      0.00000
     56       0.9401      0.00000
     57       0.9532      0.00000
     58       1.0806      0.00000
     59       1.1184      0.00000
     60       1.1184      0.00000
     61       1.1725      0.00000
     62       1.1725      0.00000
     63       1.2013      0.00000
     64       1.2248      0.00000
     65       1.2859      0.00000
     66       1.3301      0.00000
     67       1.3301      0.00000
     68       1.3999      0.00000
     69       1.4156      0.00000
     70       1.4182      0.00000
     71       1.4182      0.00000
     72       1.4284      0.00000
     73       1.4733      0.00000
     74       1.4888      0.00000
     75       1.4888      0.00000
     76       1.5442      0.00000
     77       1.5668      0.00000
     78       1.6029      0.00000
     79       1.6029      0.00000
     80       1.6048      0.00000
     81       1.6099      0.00000
     82       1.6115      0.00000
     83       1.6329      0.00000
     84       1.6330      0.00000
     85       1.6330      0.00000
     86       1.6376      0.00000
     87       1.7291      0.00000
     88       1.7291      0.00000
     89       1.7486      0.00000
     90       1.7673      0.00000
     91       1.7673      0.00000
     92       1.7787      0.00000
     93       1.7916      0.00000
     94       1.8326      0.00000
     95       1.8371      0.00000
     96       1.8371      0.00000
     97       1.8490      0.00000
     98       1.8701      0.00000
     99       1.8812      0.00000
    100       1.8812      0.00000
    101       1.8887      0.00000
    102       1.9010      0.00000
    103       1.9010      0.00000
    104       1.9083      0.00000
    105       1.9091      0.00000
    106       1.9091      0.00000
    107       1.9104      0.00000
    108       1.9357      0.00000
    109       1.9371      0.00000
    110       2.0962      0.00000
    111       2.2027      0.00000
    112       2.2028      0.00000
    113       2.2030      0.00000
    114       2.2369      0.00000
    115       2.2369      0.00000
    116       2.2798      0.00000
    117       2.2919      0.00000
    118       2.2993      0.00000
    119       2.3151      0.00000
    120       2.3152      0.00000
    121       2.3670      0.00000
    122       2.4125      0.00000
    123       2.4835      0.00000
    124       2.5317      0.00000
    125       2.5322      0.00000
    126       2.5619      0.00000
    127       2.6613      0.00000
    128       2.6616      0.00000


--------------------------------------------------------------------------------------------------------


 soft charge-density along one line, spin component           1
         0         1         2         3         4         5         6         7         8         9
 total charge-density along one line

 pseudopotential strength for first ion, spin component:           1
 12.721  21.408  -0.000   0.000   0.000  -0.000   0.001   0.000
 21.408  36.025  -0.000   0.001   0.000  -0.000   0.001   0.000
 -0.000  -0.000  -3.080   0.000   0.000  -5.521   0.000   0.000
  0.000   0.001   0.000  -3.081   0.000   0.000  -5.521   0.000
  0.000   0.000   0.000   0.000  -3.080   0.000   0.000  -5.521
 -0.000  -0.000  -5.521   0.000   0.000  -9.872   0.000   0.000
  0.001   0.001   0.000  -5.521   0.000   0.000  -9.874   0.000
  0.000   0.000   0.000   0.000  -5.521   0.000   0.000  -9.873
 total augmentation occupancy for first ion, spin component:           1
  8.011  -2.829   0.000  -0.081  -0.000  -0.000   0.007   0.000
 -2.829   1.024   0.000   0.009   0.000  -0.000   0.015  -0.000
  0.000   0.000   6.002   0.000  -0.021  -1.981  -0.000   0.004
 -0.081   0.009   0.000   6.168   0.000  -0.000  -2.043  -0.000
 -0.000   0.000  -0.021   0.000   6.170   0.004  -0.000  -2.013
 -0.000  -0.000  -1.981  -0.000   0.004   0.666   0.000   0.001
  0.007   0.015  -0.000  -2.043  -0.000   0.000   0.684   0.000
  0.000  -0.000   0.004  -0.000  -2.013   0.001   0.000   0.661


------------------------ aborting loop because EDIFF is reached ----------------------------------------


    FORLOC:  cpu time      0.0575: real time      0.0575
    FORNL :  cpu time      0.6576: real time      0.6589
    FORCOR:  cpu time      0.5219: real time      0.5225
    OFIELD:  cpu time      0.0056: real time      0.0062

 ---------------------------------------------------------------------------------------------

         DFTD3 V3.0 Rev 1        
 IVDW         = 11
 DF rpbe      
 parameters
 VDW_S6       =    1.0000
 VDW_S8       =    0.5140
 VDW_SR       =    0.8720
 rs18     =    1.0000
 alpha6   =   14.0000
 alpha8   =   16.0000
 k1-k3    =   16.0000    1.3333   -4.0000
 VDW_RADIUS   =   50.2022 A
 VDW_CNRADIUS =   21.1671 A
 Edisp (eV)   -1.33178

 E6    (eV) :    -1.1534
 E8    (eV) :    -0.1784
 % E8        : 13.39
    FORVDW:  cpu time      0.0799: real time      0.0815

 VOLUME and BASIS-vectors are now :
 -----------------------------------------------------------------------------
  energy-cutoff  :     1000.00
  volume of cell :    10648.00
      direct lattice vectors                 reciprocal lattice vectors
    22.000000000  0.000000000  0.000000000     0.045454545  0.000000000  0.000000000
     0.000000000 22.000000000  0.000000000     0.000000000  0.045454545  0.000000000
     0.000000000  0.000000000 22.000000000     0.000000000  0.000000000  0.045454545

  length of vectors
    22.000000000 22.000000000 22.000000000     0.045454545  0.045454545  0.045454545


 FORCES acting on ions:
    Electron-Ion                     Ewald-Force                    Non-Local-Force
 -----------------------------------------------------------------------------------------------
   -.514E-01 -.696E-02 0.263E+03   0.513E-01 0.727E-02 -.263E+03   0.340E-03 -.115E-02 0.275E+00
   0.307E-01 -.649E-03 -.263E+03   -.311E-01 0.413E-03 0.263E+03   0.127E-02 0.118E-02 -.278E+00
   -.257E+02 -.195E+03 0.139E+03   0.258E+02 0.196E+03 -.140E+03   -.114E+00 -.868E+00 0.619E+00
   0.195E+03 -.257E+02 -.139E+03   -.196E+03 0.258E+02 0.140E+03   0.867E+00 -.115E+00 -.619E+00
   0.257E+02 0.195E+03 0.139E+03   -.258E+02 -.196E+03 -.140E+03   0.113E+00 0.866E+00 0.619E+00
   -.195E+03 0.257E+02 -.139E+03   0.196E+03 -.258E+02 0.140E+03   -.866E+00 0.115E+00 -.621E+00
   0.160E+03 -.209E+03 -.122E+00   -.160E+03 0.209E+03 0.124E+00   0.172E+00 -.215E+00 -.284E-02
   0.209E+03 0.160E+03 0.163E+00   -.209E+03 -.160E+03 -.165E+00   0.214E+00 0.171E+00 0.515E-02
   -.160E+03 0.209E+03 -.144E+00   0.160E+03 -.209E+03 0.146E+00   -.170E+00 0.215E+00 -.354E-02
   -.209E+03 -.160E+03 0.870E-01   0.209E+03 0.160E+03 -.892E-01   -.215E+00 -.169E+00 0.216E-02
   0.554E+02 -.731E+01 0.834E+02   -.597E+02 0.789E+01 -.867E+02   0.430E+01 -.567E+00 0.327E+01
   0.733E+01 0.554E+02 -.834E+02   -.790E+01 -.597E+02 0.867E+02   0.568E+00 0.430E+01 -.327E+01
   -.554E+02 0.731E+01 0.834E+02   0.597E+02 -.789E+01 -.867E+02   -.430E+01 0.567E+00 0.327E+01
   -.732E+01 -.554E+02 -.834E+02   0.789E+01 0.597E+02 0.867E+02   -.568E+00 -.430E+01 -.327E+01
   -.111E+02 -.843E+02 0.601E+02   0.117E+02 0.888E+02 -.633E+02   -.585E+00 -.443E+01 0.316E+01
   0.843E+02 -.111E+02 -.601E+02   -.888E+02 0.117E+02 0.633E+02   0.443E+01 -.584E+00 -.316E+01
   0.111E+02 0.843E+02 0.601E+02   -.117E+02 -.888E+02 -.633E+02   0.585E+00 0.443E+01 0.316E+01
   -.843E+02 0.111E+02 -.601E+02   0.888E+02 -.117E+02 0.633E+02   -.443E+01 0.585E+00 -.316E+01
   0.821E+02 -.424E+02 0.394E+02   -.866E+02 0.431E+02 -.425E+02   0.443E+01 -.740E+00 0.306E+01
   0.424E+02 0.821E+02 -.394E+02   -.431E+02 -.866E+02 0.425E+02   0.741E+00 0.443E+01 -.306E+01
   -.821E+02 0.424E+02 0.394E+02   0.866E+02 -.431E+02 -.425E+02   -.443E+01 0.741E+00 0.306E+01
   -.424E+02 -.821E+02 -.394E+02   0.431E+02 0.866E+02 0.425E+02   -.740E+00 -.443E+01 -.306E+01
   0.192E+02 -.902E+02 -.396E+02   -.188E+02 0.947E+02 0.427E+02   -.461E+00 -.446E+01 -.308E+01
   0.902E+02 0.192E+02 0.396E+02   -.947E+02 -.188E+02 -.427E+02   0.446E+01 -.461E+00 0.308E+01
   -.192E+02 0.902E+02 -.396E+02   0.188E+02 -.947E+02 0.427E+02   0.461E+00 0.446E+01 -.308E+01
   -.902E+02 -.192E+02 0.396E+02   0.947E+02 0.188E+02 -.427E+02   -.446E+01 0.459E+00 0.308E+01
 -----------------------------------------------------------------------------------------------
   -.390E-02 -.133E-02 0.347E-03   0.242E-12 0.782E-13 0.171E-12   0.389E-02 0.133E-02 -.352E-03


 POSITION                                       TOTAL-FORCE (eV/Angst)
 -----------------------------------------------------------------------------------
     11.00033     11.00006      9.22329         0.000281     -0.000825     -0.180551
     10.99981     10.99999     12.77707         0.000844      0.000887      0.178252
     11.16530     12.24794     10.10991         0.019002      0.139260     -0.098789
      9.75197     11.16532     11.89040        -0.140039      0.017946      0.098774
     10.83484      9.75212     10.10977        -0.018944     -0.140240     -0.099932
     12.24780     10.83463     11.89061         0.140850     -0.018006      0.098195
      9.92053     12.41087     11.00134        -0.108908      0.143857     -0.000527
      9.58918      9.92069     10.99865        -0.144716     -0.109545      0.002848
     12.07938      9.58908     11.00150         0.110396     -0.144298     -0.001455
     12.41075     12.07938     10.99913         0.144601      0.111404     -0.000175
     10.12250     11.11569      8.56868        -0.069757      0.010411     -0.028837
     10.88401     10.12194     13.43126        -0.010491     -0.070484      0.030492
     11.87861     10.88437      8.56922         0.068624     -0.009925     -0.028121
     11.11564     11.87808     13.43132         0.009627      0.068883      0.029116
     11.28308     13.13899      9.47466         0.008983      0.058126     -0.041471
      8.86077     11.28300     12.52556        -0.056338      0.008368      0.040832
     10.71699      8.86110      9.47442        -0.007950     -0.057103     -0.040962
     13.13892     10.71682     12.52582         0.056538     -0.008198      0.041832
      9.02510     12.55174     10.37645        -0.060341     -0.006680     -0.053276
      9.44800      9.02511     11.62331         0.007420     -0.059483      0.053215
     12.97502      9.44796     10.37686         0.058725      0.008012     -0.052693
     12.55165     12.97493     11.62391        -0.007410      0.059006      0.053500
     10.02212     13.31003     11.62874         0.020558      0.055243      0.048441
      8.69013     10.02241     10.37117        -0.055794      0.021074     -0.049463
     11.97774      8.68997     11.62893        -0.021676     -0.055701      0.048911
     13.30987     11.97806     10.37165         0.055916     -0.021988     -0.048157
 -----------------------------------------------------------------------------------
    total drift:                               -0.000001     -0.000001     -0.000005


--------------------------------------------------------------------------------------------------------



  FREE ENERGIE OF THE ION-ELECTRON SYSTEM (eV)
  ---------------------------------------------------
  free  energy   TOTEN  =      -149.14413703 eV

  energy  without entropy=     -149.14413703  energy(sigma->0) =     -149.14413703



--------------------------------------------------------------------------------------------------------


    POTLOK:  cpu time      0.7203: real time      0.7209


--------------------------------------------------------------------------------------------------------


 stress matrix after NEB project (eV)
     -0.29691      0.00003      0.00001
      0.00003     -0.29694      0.00001
      0.00001      0.00001     -0.29711
  FORCES: max atom, RMS     0.182538    0.125237
  FORCE total and by dimension    0.638587    0.180551
  Stress total and by dimension    0.514400    0.297113
     LOOP+:  cpu time    202.3006: real time    202.6845
    4ORBIT:  cpu time      0.0000: real time      0.0000

 total amount of memory used by VASP MPI-rank0   605071. kBytes
=======================================================================

   base      :      30000. kBytes
   nonl-proj :     103960. kBytes
   fftplans  :     159096. kBytes
   grid      :     302822. kBytes
   one-center:         19. kBytes
   wavefun   :       9174. kBytes

  
  
 General timing and accounting informations for this job:
 ========================================================
  
                  Total CPU time used (sec):      244.026
                            User time (sec):      209.685
                          System time (sec):       34.341
                         Elapsed time (sec):      249.384
  
                   Maximum memory used (kb):      857792.
                   Average memory used (kb):          N/A
  
                          Minor page faults:      1318656
                          Major page faults:         1191
                 Voluntary context switches:         7150
