 vasp.6.4.1 05Apr23 (build Jun  6 2023 14:46:38) gamma-only                      
 executed on        HPECrayEX_GCC date 2024.08.20  21:26:11
 running  256 mpi-ranks, with    1 threads/rank, on    2 nodes
 distrk:  each k-point on  256 cores,    1 groups
 distr:  one band on NCORE=  64 cores,    4 groups


--------------------------------------------------------------------------------------------------------


 INCAR:
   ALGO = Conjugate
   NPAR = 4
   ISMEAR = 0
   SIGMA = 0.01
   PREC = Accurate
   EDIFF = 1E-7
   ENCUT = 1000
   ISIF = 0
   GGA = RE
   LUSE_VDW = .TRUE.
   AGGAC = 0.0000
   LASPH = .TRUE.
   LWAVE = .FALSE.
   LCHARG = .FALSE.

 POTCAR:    PAW_PBE C_h 06Feb2004                 
 POTCAR:    PAW_PBE H_h 06Feb2004                 
 -----------------------------------------------------------------------------
|                                                                             |
|               ----> ADVICE to this user running VASP <----                  |
|                                                                             |
|     You have switched on vdW-DFT.                                           |
|     This routine was written and supplied by Jiri Klimes. We recommend      |
|     that you carefully read and cite the following publications:            |
|       J. Klimes, D.R. Bowler, A. Michelides                                 |
|          J. Phys.: Cond Matt. 22 022201 (2010)                              |
|       J. Klimes, D.R. Bowler, A. Michelides                                 |
|          Phys. Rev. B. 83, 195131 (2011)                                    |
|     and references therein.                                                 |
|                                                                             |
 -----------------------------------------------------------------------------

 POTCAR:    PAW_PBE C_h 06Feb2004                 
   VRHFIN =C: s2p2                                                                                  
   LEXCH  = PE                                                                                      
   EATOM  =   147.1560 eV,   10.8157 Ry                                                             
                                                                                                    
   TITEL  = PAW_PBE C_h 06Feb2004                                                                   
   LULTRA =        F    use ultrasoft PP ?                                                          
   IUNSCR =        1    unscreen: 0-lin 1-nonlin 2-no                                               
   RPACOR =    0.800    partial core radius                                                         
   POMASS =   12.011; ZVAL   =    4.000    mass and valenz                                          
   RCORE  =    1.100    outmost cutoff radius                                                       
   RWIGS  =    1.630; RWIGS  =    0.863    wigner-seitz radius (au A)                               
   ENMAX  =  700.000; ENMIN  =  500.000 eV                                                          
   ICORE  =        2    local potential                                                             
   LCOR   =        T    correct aug charges                                                         
   LPAW   =        T    paw PP                                                                      
   EAUG   =  946.768                                                                                
   DEXC   =    0.000                                                                                
   RMAX   =    1.128    core radius for proj-oper                                                   
   RAUG   =    1.300    factor for augmentation sphere                                              
   RDEP   =    1.162    radius for radial grids                                                     
   RDEPT  =    1.088    core radius for aug-charge                                                  
                                                                                                    
   Atomic configuration                                                                             
    4 entries                                                                                       
     n  l   j            E        occ.                                                              
     1  0  0.50      -273.3789   2.0000                                                             
     2  0  0.50       -13.7508   2.0000                                                             
     2  1  0.50        -5.2854   2.0000                                                             
     3  2  1.50        -5.4423   0.0000                                                             
   Description                                                                                      
     l       E           TYP  RCUT    TYP  RCUT                                                     
     0    -13.7508458     23  1.100                                                                 
     0     -8.2022199     23  1.100                                                                 
     1     -5.2854383     23  1.100                                                                 
     1      1.1560700     23  1.100                                                                 
     2     -5.4423304      7  1.100                                                                 
  local pseudopotential read in
  partial core-charges read in
  partial kinetic energy density read in
  atomic valenz-charges read in
  non local Contribution for L=           0  read in
    real space projection operators read in
  non local Contribution for L=           0  read in
    real space projection operators read in
  non local Contribution for L=           1  read in
    real space projection operators read in
  non local Contribution for L=           1  read in
    real space projection operators read in
    PAW grid and wavefunctions read in

   number of l-projection  operators is LMAX  =           4
   number of lm-projection operators is LMMAX =           8

 POTCAR:    PAW_PBE H_h 06Feb2004                 
   VRHFIN =H: ultrasoft test                                                                        
   LEXCH  = PE                                                                                      
   EATOM  =    12.4884 eV,    0.9179 Ry                                                             
                                                                                                    
   TITEL  = PAW_PBE H_h 06Feb2004                                                                   
   LULTRA =        F    use ultrasoft PP ?                                                          
   IUNSCR =        0    unscreen: 0-lin 1-nonlin 2-no                                               
   RPACOR =    0.000    partial core radius                                                         
   POMASS =    1.000; ZVAL   =    1.000    mass and valenz                                          
   RCORE  =    0.800    outmost cutoff radius                                                       
   RWIGS  =    0.700; RWIGS  =    0.370    wigner-seitz radius (au A)                               
   ENMAX  =  700.000; ENMIN  =  350.000 eV                                                          
   RCLOC  =    0.701    cutoff for local pot                                                        
   LCOR   =        T    correct aug charges                                                         
   LPAW   =        T    paw PP                                                                      
   EAUG   = 1000.000                                                                                
   RMAX   =    0.819    core radius for proj-oper                                                   
   RAUG   =    1.000    factor for augmentation sphere                                              
   RDEP   =    0.817    radius for radial grids                                                     
   RDEPT  =    0.817    core radius for aug-charge                                                  
                                                                                                    
   Atomic configuration                                                                             
    2 entries                                                                                       
     n  l   j            E        occ.                                                              
     1  0  0.50        -6.4927   1.0000                                                             
     2  1  0.50        -3.4015   0.0000                                                             
   Description                                                                                      
     l       E           TYP  RCUT    TYP  RCUT                                                     
     0     -6.4927493     23  0.800                                                                 
     0      6.8029130     23  0.800                                                                 
     1     -6.8029130     23  0.800                                                                 
  local pseudopotential read in
  atomic valenz-charges read in
  non local Contribution for L=           0  read in
    real space projection operators read in
  non local Contribution for L=           0  read in
    real space projection operators read in
  non local Contribution for L=           1  read in
    real space projection operators read in
    PAW grid and wavefunctions read in

   number of l-projection  operators is LMAX  =           3
   number of lm-projection operators is LMMAX =           5

 -----------------------------------------------------------------------------
|                                                                             |
|               ----> ADVICE to this user running VASP <----                  |
|                                                                             |
|     You have a (more or less) 'large supercell' and for larger cells it     |
|     might be more efficient to use real-space projection operators.         |
|     Therefore, try LREAL= Auto in the INCAR file.                           |
|     Mind: For very accurate calculation, you might also keep the            |
|     reciprocal projection scheme (i.e. LREAL=.FALSE.).                      |
|                                                                             |
 -----------------------------------------------------------------------------

 -----------------------------------------------------------------------------
|                                                                             |
|               ----> ADVICE to this user running VASP <----                  |
|                                                                             |
|     You enforced a specific xc type in the INCAR file but a different       |
|     type was found in the POTCAR file.                                      |
|     I HOPE YOU KNOW WHAT YOU ARE DOING!                                     |
|                                                                             |
 -----------------------------------------------------------------------------

  PAW_PBE C_h 06Feb2004                 :
 energy of atom  1       EATOM= -147.1560
 kinetic energy error for atom=    0.0031 (will be added to EATOM!!)
  PAW_PBE H_h 06Feb2004                 :
 energy of atom  2       EATOM=  -12.4884
 kinetic energy error for atom=    0.0006 (will be added to EATOM!!)


 POSCAR:  C  H
  positions in cartesian coordinates
  No initial velocities read in
 exchange correlation table for  LEXCH =       40
   RHO(1)=    0.500       N(1)  =     2000
   RHO(2)=  100.500       N(2)  =     4000

 VTST: version 4.1, (05/19/21)

 CHAIN: initializing optimizer
 
 OPT: Using VASP Dynamics algorithm
 CHAIN: Read ICHAIN            0

 POSCAR:  C  H
  positions in cartesian coordinates
  No initial velocities read in



--------------------------------------------------------------------------------------------------------


 ion  position               nearest neighbor table
   1  0.500  0.500  0.419-  11 1.10  13 1.10   3 1.54   5 1.54
   2  0.500  0.500  0.581-  12 1.10  14 1.10   4 1.54   6 1.54
   3  0.508  0.557  0.460-  15 1.10  10 1.54   1 1.54   7 1.54
   4  0.443  0.508  0.540-  16 1.10   7 1.54   2 1.54   8 1.54
   5  0.492  0.443  0.460-  17 1.10   8 1.54   1 1.54   9 1.54
   6  0.557  0.492  0.540-  18 1.10   9 1.54   2 1.54  10 1.54
   7  0.451  0.564  0.500-  19 1.10  23 1.10   4 1.54   3 1.54
   8  0.436  0.451  0.500-  20 1.10  24 1.10   5 1.54   4 1.54
   9  0.549  0.436  0.500-  21 1.10  25 1.10   6 1.54   5 1.54
  10  0.564  0.549  0.500-  22 1.10  26 1.10   3 1.54   6 1.54
  11  0.460  0.505  0.389-   1 1.10
  12  0.495  0.460  0.611-   2 1.10
  13  0.540  0.495  0.390-   1 1.10
  14  0.505  0.540  0.611-   2 1.10
  15  0.513  0.597  0.431-   3 1.10
  16  0.403  0.513  0.569-   4 1.10
  17  0.487  0.403  0.431-   5 1.10
  18  0.597  0.487  0.569-   6 1.10
  19  0.410  0.571  0.472-   7 1.10
  20  0.429  0.410  0.528-   8 1.10
  21  0.590  0.429  0.472-   9 1.10
  22  0.571  0.590  0.528-  10 1.10
  23  0.456  0.605  0.529-   7 1.10
  24  0.395  0.456  0.471-   8 1.10
  25  0.544  0.395  0.529-   9 1.10
  26  0.605  0.544  0.471-  10 1.10

  LATTYP: Found a simple cubic cell.
 ALAT       =    22.0000000000
  
  Lattice vectors:
  
 A1 = (  22.0000000000,   0.0000000000,   0.0000000000)
 A2 = (   0.0000000000,  22.0000000000,   0.0000000000)
 A3 = (   0.0000000000,   0.0000000000,  22.0000000000)


Analysis of symmetry for initial positions (statically):
=====================================================================
 Subroutine PRICEL returns:
 Original cell was already a primitive cell.
 

 Routine SETGRP: Setting up the symmetry group for a 
 simple cubic supercell.


 Subroutine GETGRP returns: Found  1 space group operations
 (whereof  1 operations were pure point group operations)
 out of a pool of 48 trial point group operations.


The static configuration has the point symmetry C_1 .


Analysis of symmetry for dynamics (positions and initial velocities):
=====================================================================
 Subroutine PRICEL returns:
 Original cell was already a primitive cell.
 

 Routine SETGRP: Setting up the symmetry group for a 
 simple cubic supercell.


 Subroutine GETGRP returns: Found  1 space group operations
 (whereof  1 operations were pure point group operations)
 out of a pool of 48 trial point group operations.


The dynamic configuration has the point symmetry C_1 .


 Subroutine INISYM returns: Found  1 space group operations
 (whereof  1 operations are pure point group operations),
 and found     1 'primitive' translations


----------------------------------------------------------------------------------------

                                     Primitive cell                                     

  volume of cell :   10648.0000

  direct lattice vectors                    reciprocal lattice vectors
    22.000000000  0.000000000  0.000000000     0.045454545  0.000000000  0.000000000
     0.000000000 22.000000000  0.000000000     0.000000000  0.045454545  0.000000000
     0.000000000  0.000000000 22.000000000     0.000000000  0.000000000  0.045454545

  length of vectors
    22.000000000 22.000000000 22.000000000     0.045454545  0.045454545  0.045454545

  position of ions in fractional coordinates (direct lattice)
     0.500015000  0.500002727  0.419240455
     0.499991364  0.499999545  0.580775909
     0.507513636  0.556724545  0.459541364
     0.443271364  0.507514545  0.540472727
     0.492492727  0.443278182  0.459535000
     0.556718182  0.492483182  0.540482273
     0.450933182  0.564130455  0.500060909
     0.435871818  0.450940455  0.499938636
     0.549062727  0.435867273  0.500068182
     0.564125000  0.549062727  0.499960455
     0.460113636  0.505258636  0.389485455
     0.494727727  0.460088182  0.610511818
     0.539936818  0.494744091  0.389510000
     0.505256364  0.539912727  0.610514545
     0.512867273  0.597226818  0.430666364
     0.402762273  0.512863636  0.569343636
     0.487135909  0.402777273  0.430655455
     0.597223636  0.487128182  0.569355455
     0.410231818  0.570533636  0.471656818
     0.429454545  0.410232273  0.528332273
     0.589773636  0.429452727  0.471675455
     0.570529545  0.589769545  0.528359545
     0.455550909  0.605001364  0.528579091
     0.395005909  0.455564091  0.471416818
     0.544442727  0.394998636  0.528587727
     0.604994091  0.544457273  0.471438636

  ion indices of the primitive-cell ions
   primitive index   ion index
                 1           1
                 2           2
                 3           3
                 4           4
                 5           5
                 6           6
                 7           7
                 8           8
                 9           9
                10          10
                11          11
                12          12
                13          13
                14          14
                15          15
                16          16
                17          17
                18          18
                19          19
                20          20
                21          21
                22          22
                23          23
                24          24
                25          25
                26          26

----------------------------------------------------------------------------------------



 KPOINTS: auto                                    

Automatic generation of k-mesh.
 Grid dimensions read from file:
 generate k-points for:    1    1    1

 Generating k-lattice:

  Cartesian coordinates                     Fractional coordinates (reciprocal lattice)
     0.045454545  0.000000000  0.000000000     1.000000000  0.000000000  0.000000000
     0.000000000  0.045454545  0.000000000     0.000000000  1.000000000  0.000000000
     0.000000000  0.000000000  0.045454545     0.000000000  0.000000000  1.000000000

  Length of vectors
     0.045454545  0.045454545  0.045454545

  Shift w.r.t. Gamma in fractional coordinates (k-lattice)
     0.000000000  0.000000000  0.000000000

 
 Subroutine IBZKPT returns following result:
 ===========================================
 
 Found      1 irreducible k-points:
 
 Following reciprocal coordinates:
            Coordinates               Weight
  0.000000  0.000000  0.000000      1.000000
 
 Following cartesian coordinates:
            Coordinates               Weight
  0.000000  0.000000  0.000000      1.000000
 


--------------------------------------------------------------------------------------------------------




 Dimension of arrays:
   k-points           NKPTS =      1   k-points in BZ     NKDIM =      1   number of bands    NBANDS=     44
   number of dos      NEDOS =    301   number of ions     NIONS =     26
   non local maximal  LDIM  =      4   non local SUM 2l+1 LMDIM =      8
   total plane-waves  NPLWV = ******
   max r-space proj   IRMAX =      1   max aug-charges    IRDMAX=   8811
   dimension x,y,z NGX =   240 NGY =  240 NGZ =  240
   dimension x,y,z NGXF=   480 NGYF=  480 NGZF=  480
   support grid    NGXF=   480 NGYF=  480 NGZF=  480
   ions per type =              10  16
   NGX,Y,Z   is equivalent  to a cutoff of  18.14, 18.14, 18.14 a.u.
   NGXF,Y,Z  is equivalent  to a cutoff of  36.27, 36.27, 36.27 a.u.

 SYSTEM =  unknown system                          
 POSCAR =   C  H                                   

 Startparameter for this run:
   NWRITE =      2    write-flag & timer
   PREC   = accura    normal or accurate (medium, high low for compatibility)
   ISTART =      0    job   : 0-new  1-cont  2-samecut
   ICHARG =      2    charge: 1-file 2-atom 10-const
   ISPIN  =      1    spin polarized calculation?
   LNONCOLLINEAR =      F non collinear calculations
   LSORBIT =      F    spin-orbit coupling
   INIWAV =      1    electr: 0-lowe 1-rand  2-diag
   LASPH  =      T    aspherical Exc in radial PAW
 Electronic Relaxation 1
   ENCUT  = 1000.0 eV  73.50 Ry    8.57 a.u.  56.73 56.73 56.73*2*pi/ulx,y,z
   ENINI  = 1000.0     initial cutoff
   ENAUG  = 1000.0 eV  augmentation charge cutoff
   NELM   =     60;   NELMIN=  2; NELMDL= -5     # of ELM steps 
   EDIFF  = 0.1E-06   stopping-criterion for ELM
   LREAL  =      F    real-space projection
   NLSPLINE    = F    spline interpolate recip. space projectors
   LCOMPAT=      F    compatible to vasp.4.4
   GGA_COMPAT  = T    GGA compatible to vasp.4.4-vasp.4.6
   LMAXPAW     = -100 max onsite density
   LMAXMIX     =    2 max onsite mixed and CHGCAR
   VOSKOWN=      0    Vosko Wilk Nusair interpolation
   ROPT   =    0.00000   0.00000
 Ionic relaxation
   EDIFFG = 0.1E-05   stopping-criterion for IOM
   NSW    =      0    number of steps for IOM
   NBLOCK =      1;   KBLOCK =      1    inner block; outer block 
   IBRION =     -1    ionic relax: 0-MD 1-quasi-New 2-CG
   NFREE  =      0    steps in history (QN), initial steepest desc. (CG)
   ISIF   =      0    stress and relaxation
   IWAVPR =     10    prediction:  0-non 1-charg 2-wave 3-comb
   ISYM   =      2    0-nonsym 1-usesym 2-fastsym
   LCORR  =      T    Harris-Foulkes like correction to forces

   POTIM  = 0.5000    time-step for ionic-motion
   TEIN   =    0.0    initial temperature
   TEBEG  =    0.0;   TEEND  =   0.0 temperature during run
   SMASS  =  -3.00    Nose mass-parameter (am)
   estimated Nose-frequenzy (Omega)   =  0.10E-29 period in steps = 0.13E+47 mass=  -0.111E-25a.u.
   SCALEE = 1.0000    scale energy and forces
   NPACO  =    256;   APACO  = 10.0  distance and # of slots for P.C.
   PSTRESS=    0.0 pullay stress

  Mass of Ions in am
   POMASS =  12.01  1.00
  Ionic Valenz
   ZVAL   =   4.00  1.00
  Atomic Wigner-Seitz radii
   RWIGS  =  -1.00 -1.00
  virtual crystal weights 
   VCA    =   1.00  1.00
   NELECT =      56.0000    total number of electrons
   NUPDOWN=      -1.0000    fix difference up-down

 DOS related values:
   EMIN   =  10.00;   EMAX   =-10.00  energy-range for DOS
   EFERMI =   0.00;   METHOD = LEGACY      
   ISMEAR =     0;   SIGMA  =   0.01  broadening in eV -4-tet -1-fermi 0-gaus

 Electronic relaxation 2 (details)
   IALGO  =     58    algorithm
   LDIAG  =      T    sub-space diagonalisation (order eigenvalues)
   LSUBROT=      F    optimize rotation matrix (better conditioning)
   TURBO    =      0    0=normal 1=particle mesh
   IRESTART =      0    0=no restart 2=restart with 2 vectors
   NREBOOT  =      0    no. of reboots
   NMIN     =      0    reboot dimension
   EREF     =   0.00    reference energy to select bands
   IMIX   =      4    mixing-type and parameters
     AMIX     =   0.40;   BMIX     =  1.00
     AMIX_MAG =   1.60;   BMIX_MAG =  1.00
     AMIN     =   0.10
     WC   =   100.;   INIMIX=   1;  MIXPRE=   1;  MAXMIX= -45

 Intra band minimization:
   WEIMIN = 0.0000     energy-eigenvalue tresh-hold
   EBREAK =  0.57E-09  absolut break condition
   DEPER  =   0.30     relativ break condition  

   TIME   =   0.40     timestep for ELM

  volume/ion in A,a.u.               =     409.54      2763.70
  Fermi-wavevector in a.u.,A,eV,Ry     =   0.284696  0.537998  1.102778  0.081052
  Thomas-Fermi vector in A             =   1.137744

 Write flags
   LWAVE        =      F    write WAVECAR
   LDOWNSAMPLE  =      F    k-point downsampling of WAVECAR
   LCHARG       =      F    write CHGCAR
   LVTOT        =      F    write LOCPOT, total local potential
   LVHAR        =      F    write LOCPOT, Hartree potential only
   LELF         =      F    write electronic localiz. function (ELF)
   LORBIT       =      0    0 simple, 1 ext, 2 COOP (PROOUT), +10 PAW based schemes


 Dipole corrections
   LMONO  =      F    monopole corrections only (constant potential shift)
   LDIPOL =      F    correct potential (dipole corrections)
   IDIPOL =      0    1-x, 2-y, 3-z, 4-all directions 
   EPSILON=  1.0000000 bulk dielectric constant

 Exchange correlation treatment:
   GGA     =    RE    GGA type
   LEXCH   =    40    internal setting for exchange type
   LIBXC   =     F    Libxc                    
   VOSKOWN =     0    Vosko Wilk Nusair interpolation
   LHFCALC =     F    Hartree Fock is set to
   LHFONE  =     F    Hartree Fock one center treatment
   AEXX    =    0.0000 exact exchange contribution

 vdW DFT:
   LUSE_VDW   =     T    switch on vdW DFT
   IVDW_NL    =     1    kernel type
   LSPIN_VDW  =     F    use spin-polarized vdW DFT
   Zab_VDW    =-.8491    correlation parameter
   PARAM1     =0.1234
   PARAM2     =1.0000
   PARAM3     =0.0000
   -- rVV10 --
   BPARAM     = 6.3000
   CPARAM     = 0.0093

 Linear response parameters
   LEPSILON=     F    determine dielectric tensor
   LRPA    =     F    only Hartree local field effects (RPA)
   LNABLA  =     F    use nabla operator in PAW spheres
   LVEL    =     F    velocity operator in full k-point grid
   CSHIFT  =0.1000    complex shift for real part using Kramers Kronig
   OMEGAMAX=  -1.0    maximum frequency
   DEG_THRESHOLD= 0.2000000E-02 threshold for treating states as degnerate
   RTIME   =   -0.100 relaxation time in fs
  (WPLASMAI=    0.000 imaginary part of plasma frequency in eV, 0.658/RTIME)
   DFIELD  = 0.0000000 0.0000000 0.0000000 field for delta impulse in time

  Optional k-point grid parameters
   LKPOINTS_OPT  =     F    use optional k-point grid
   KPOINTS_OPT_MODE=     1    mode for optional k-point grid

 Orbital magnetization related:
   ORBITALMAG=     F  switch on orbital magnetization
   LCHIMAG   =     F  perturbation theory with respect to B field
   DQ        =  0.001000  dq finite difference perturbation B field
   LLRAUG    =     F  two centre corrections for induced B field
   LBONE     =     F  B-component reconstruction in AE one-centre
   LVGVCALC  =     T  calculate vGv susceptibility
   LVGVAPPL  =     F  apply vGv susceptibility instead of pGv for G=0

 Random number generation:
   RANDOM_GENERATOR = DEFAULT
   PCG_SEED         = not used


--------------------------------------------------------------------------------------------------------


 Static calculation
 charge density and potential will be updated during run
 non-spin polarized calculation
 Conjugate gradient for all bands (Freysoldt, et al. PRB 79, 241103 (2009))
 preconditioned conjugated gradient                                        
 perform sub-space diagonalisation
    before iterative eigenvector-optimisation
 modified Broyden-mixing scheme, WC =      100.0
 initial mixing is a Kerker type mixing with AMIX =  0.4000 and BMIX =      1.0000
 Hartree-type preconditioning will be used
 using additional bands           16
 reciprocal scheme for non local part
 use partial core corrections
 no Harris-corrections to forces 
 use gradient corrections 
 use of overlap-Matrix (Vanderbilt PP)
 Gauss-broadening in eV      SIGMA  =   0.01


--------------------------------------------------------------------------------------------------------


  energy-cutoff  :     1000.00
  volume of cell :    10648.00
      direct lattice vectors                 reciprocal lattice vectors
    22.000000000  0.000000000  0.000000000     0.045454545  0.000000000  0.000000000
     0.000000000 22.000000000  0.000000000     0.000000000  0.045454545  0.000000000
     0.000000000  0.000000000 22.000000000     0.000000000  0.000000000  0.045454545

  length of vectors
    22.000000000 22.000000000 22.000000000     0.045454545  0.045454545  0.045454545



 k-points in units of 2pi/SCALE and weight: auto                                    
   0.00000000  0.00000000  0.00000000       1.000

 k-points in reciprocal lattice and weights: auto                                    
   0.00000000  0.00000000  0.00000000       1.000

 position of ions in fractional coordinates (direct lattice) 
   0.50001500  0.50000273  0.41924045
   0.49999136  0.49999955  0.58077591
   0.50751364  0.55672455  0.45954136
   0.44327136  0.50751455  0.54047273
   0.49249273  0.44327818  0.45953500
   0.55671818  0.49248318  0.54048227
   0.45093318  0.56413045  0.50006091
   0.43587182  0.45094045  0.49993864
   0.54906273  0.43586727  0.50006818
   0.56412500  0.54906273  0.49996045
   0.46011364  0.50525864  0.38948545
   0.49472773  0.46008818  0.61051182
   0.53993682  0.49474409  0.38951000
   0.50525636  0.53991273  0.61051455
   0.51286727  0.59722682  0.43066636
   0.40276227  0.51286364  0.56934364
   0.48713591  0.40277727  0.43065545
   0.59722364  0.48712818  0.56935545
   0.41023182  0.57053364  0.47165682
   0.42945455  0.41023227  0.52833227
   0.58977364  0.42945273  0.47167545
   0.57052955  0.58976955  0.52835955
   0.45555091  0.60500136  0.52857909
   0.39500591  0.45556409  0.47141682
   0.54444273  0.39499864  0.52858773
   0.60499409  0.54445727  0.47143864

 position of ions in cartesian coordinates  (Angst):
  11.00033000 11.00006000  9.22329000
  10.99981000 10.99999000 12.77707000
  11.16530000 12.24794000 10.10991000
   9.75197000 11.16532000 11.89040000
  10.83484000  9.75212000 10.10977000
  12.24780000 10.83463000 11.89061000
   9.92053000 12.41087000 11.00134000
   9.58918000  9.92069000 10.99865000
  12.07938000  9.58908000 11.00150000
  12.41075000 12.07938000 10.99913000
  10.12250000 11.11569000  8.56868000
  10.88401000 10.12194000 13.43126000
  11.87861000 10.88437000  8.56922000
  11.11564000 11.87808000 13.43132000
  11.28308000 13.13899000  9.47466000
   8.86077000 11.28300000 12.52556000
  10.71699000  8.86110000  9.47442000
  13.13892000 10.71682000 12.52582000
   9.02510000 12.55174000 10.37645000
   9.44800000  9.02511000 11.62331000
  12.97502000  9.44796000 10.37686000
  12.55165000 12.97493000 11.62391000
  10.02212000 13.31003000 11.62874000
   8.69013000 10.02241000 10.37117000
  11.97774000  8.68997000 11.62893000
  13.30987000 11.97806000 10.37165000



--------------------------------------------------------------------------------------------------------


 use parallel FFT for orbitals z direction half grid
 k-point   1 :   0.0000 0.0000 0.0000  plane waves:  381993

 maximum and minimum number of plane-waves per node :      5979     5959

 maximum number of plane-waves:    381993
 maximum index in each direction: 
   IXMAX=   56   IYMAX=   56   IZMAX=   56
   IXMIN=  -56   IYMIN=  -56   IZMIN=    0


 parallel 3D FFT for wavefunctions:
    minimum data exchange during FFTs selected (reduces bandwidth)
 parallel 3D FFT for charge:
    minimum data exchange during FFTs selected (reduces bandwidth)


 total amount of memory used by VASP MPI-rank0    91608. kBytes
=======================================================================

   base      :      30000. kBytes
   nonl-proj :       3244. kBytes
   fftplans  :      20101. kBytes
   grid      :      35112. kBytes
   one-center:          1. kBytes
   wavefun   :       3150. kBytes

     INWAV:  cpu time      0.0001: real time      0.0002
 Broyden mixing: mesh for mixing (old mesh)
   NGX =113   NGY =113   NGZ =113
  (NGX  =480   NGY  =480   NGZ  =480)
  gives a total of ****** points

 initial charge density was supplied:
 charge density of overlapping atoms calculated
 number of electron      56.0000000 magnetization 
 keeping initial charge density in first step


--------------------------------------------------------------------------------------------------------


 Maximum index for augmentation-charges          318 (set IRDMAX)


--------------------------------------------------------------------------------------------------------


 First call to EWALD:  gamma=   0.081
 Maximum number of real-space cells 3x 3x 3
 Maximum number of reciprocal cells 3x 3x 3

    FEWALD:  cpu time      0.0036: real time      0.0037


--------------------------------------- Ionic step        1  -------------------------------------------




--------------------------------------- Iteration      1(   1)  ---------------------------------------


vdW kernel read from vdw_kernel.bindat
  0.0000  0.2424  0.5071  0.7962  1.1119  1.4567  1.8333  2.2446  2.6937  3.1842
  3.7199  4.3049  4.9438  5.6415  6.4036  7.2358  8.1446  9.1372 10.2212 11.4050
 12.6979 14.1099 15.6519 17.3360 19.1751 21.1837 23.3773 25.7729 28.3892 31.2465
 34.3669 37.7748 41.4965 45.5611 50.0000

    POTLOK:  cpu time     21.6757: real time     21.6845
    SETDIJ:  cpu time      0.0741: real time      0.0742
    TRIAL :  cpu time      0.9613: real time      0.9624
    CORREC:  cpu time      0.0015: real time      0.0016
    --------------------------------------------
      LOOP:  cpu time     22.7236: real time     22.7338

 eigenvalue-minimisations  :   104
 total energy-change (2. order) : 0.5733903E+03  (-0.1632577E+04)
 number of electron      56.0000000 magnetization 
 augmentation part       56.0000000 magnetization 

 Free energy of the ion-electron system (eV)
  ---------------------------------------------------
  alpha Z        PSCENC =         0.92446154
  Ewald energy   TEWEN  =      5822.64067415
  -Hartree energ DENC   =     -6863.70436586
  -exchange      EXHF   =         0.00000000
  -V(xc)+E(xc)   XCENC  =       102.68977333
  PAW double counting   =      1163.89556805    -1105.05350397
  entropy T*S    EENTRO =        -0.00000036
  eigenvalues    EBANDS =      -247.14942962
  atomic energy  EATOM  =      1699.14712637
  ---------------------------------------------------
  free energy    TOTEN  =       573.39030363 eV

  energy without entropy =      573.39030398  energy(sigma->0) =      573.39030380


--------------------------------------------------------------------------------------------------------




--------------------------------------- Iteration      1(   2)  ---------------------------------------


    TRIAL :  cpu time      1.1836: real time      1.1845
    CORREC:  cpu time      0.0001: real time      0.0001
    --------------------------------------------
      LOOP:  cpu time      1.1982: real time      1.2118

 eigenvalue-minimisations  :   144
 total energy-change (2. order) :-0.2924734E+03  (-0.2621578E+03)
 number of electron      56.0000000 magnetization 
 augmentation part       56.0000000 magnetization 

 Free energy of the ion-electron system (eV)
  ---------------------------------------------------
  alpha Z        PSCENC =         0.92446154
  Ewald energy   TEWEN  =      5822.64067415
  -Hartree energ DENC   =     -6863.70436586
  -exchange      EXHF   =         0.00000000
  -V(xc)+E(xc)   XCENC  =       102.68977333
  PAW double counting   =      1163.89556805    -1105.05350397
  entropy T*S    EENTRO =        -0.00000000
  eigenvalues    EBANDS =      -539.62279152
  atomic energy  EATOM  =      1699.14712637
  ---------------------------------------------------
  free energy    TOTEN  =       280.91694208 eV

  energy without entropy =      280.91694208  energy(sigma->0) =      280.91694208


--------------------------------------------------------------------------------------------------------




--------------------------------------- Iteration      1(   3)  ---------------------------------------


    TRIAL :  cpu time      1.1088: real time      1.1093
    CORREC:  cpu time      0.0001: real time      0.0001
    --------------------------------------------
      LOOP:  cpu time      1.1205: real time      1.1382

 eigenvalue-minimisations  :   132
 total energy-change (2. order) :-0.3299812E+03  (-0.3169582E+03)
 number of electron      56.0000000 magnetization 
 augmentation part       56.0000000 magnetization 

 Free energy of the ion-electron system (eV)
  ---------------------------------------------------
  alpha Z        PSCENC =         0.92446154
  Ewald energy   TEWEN  =      5822.64067415
  -Hartree energ DENC   =     -6863.70436586
  -exchange      EXHF   =         0.00000000
  -V(xc)+E(xc)   XCENC  =       102.68977333
  PAW double counting   =      1163.89556805    -1105.05350397
  entropy T*S    EENTRO =        -0.00000000
  eigenvalues    EBANDS =      -869.60403591
  atomic energy  EATOM  =      1699.14712637
  ---------------------------------------------------
  free energy    TOTEN  =       -49.06430231 eV

  energy without entropy =      -49.06430231  energy(sigma->0) =      -49.06430231


--------------------------------------------------------------------------------------------------------




--------------------------------------- Iteration      1(   4)  ---------------------------------------


    TRIAL :  cpu time      1.0355: real time      1.0360
    CORREC:  cpu time      0.0001: real time      0.0001
    --------------------------------------------
      LOOP:  cpu time      1.0634: real time      1.0641

 eigenvalue-minimisations  :   120
 total energy-change (2. order) :-0.9604492E+02  (-0.9574752E+02)
 number of electron      56.0000000 magnetization 
 augmentation part       56.0000000 magnetization 

 Free energy of the ion-electron system (eV)
  ---------------------------------------------------
  alpha Z        PSCENC =         0.92446154
  Ewald energy   TEWEN  =      5822.64067415
  -Hartree energ DENC   =     -6863.70436586
  -exchange      EXHF   =         0.00000000
  -V(xc)+E(xc)   XCENC  =       102.68977333
  PAW double counting   =      1163.89556805    -1105.05350397
  entropy T*S    EENTRO =        -0.00000000
  eigenvalues    EBANDS =      -965.64895374
  atomic energy  EATOM  =      1699.14712637
  ---------------------------------------------------
  free energy    TOTEN  =      -145.10922014 eV

  energy without entropy =     -145.10922014  energy(sigma->0) =     -145.10922014


--------------------------------------------------------------------------------------------------------




--------------------------------------- Iteration      1(   5)  ---------------------------------------


    TRIAL :  cpu time      0.9862: real time      0.9866
    CORREC:  cpu time      0.0001: real time      0.0001
    CHARGE:  cpu time      0.1275: real time      0.1280
    --------------------------------------------
      LOOP:  cpu time      1.1281: real time      1.1431

 eigenvalue-minimisations  :   112
 total energy-change (2. order) :-0.5295346E+01  (-0.5285805E+01)
 number of electron      56.0000000 magnetization 
 augmentation part        0.0369083 magnetization 

 Free energy of the ion-electron system (eV)
  ---------------------------------------------------
  alpha Z        PSCENC =         0.92446154
  Ewald energy   TEWEN  =      5822.64067415
  -Hartree energ DENC   =     -6863.70436586
  -exchange      EXHF   =         0.00000000
  -V(xc)+E(xc)   XCENC  =       102.68977333
  PAW double counting   =      1163.89556805    -1105.05350397
  entropy T*S    EENTRO =        -0.00000000
  eigenvalues    EBANDS =      -970.94430008
  atomic energy  EATOM  =      1699.14712637
  ---------------------------------------------------
  free energy    TOTEN  =      -150.40456648 eV

  energy without entropy =     -150.40456648  energy(sigma->0) =     -150.40456648


--------------------------------------------------------------------------------------------------------




--------------------------------------- Iteration      1(   6)  ---------------------------------------


    POTLOK:  cpu time     21.1618: real time     21.1679
    SETDIJ:  cpu time      0.0671: real time      0.0671
    TRIAL :  cpu time      0.5811: real time      0.5822
    CORREC:  cpu time     21.4492: real time     21.4555
    CHARGE:  cpu time      0.1181: real time      0.1181
    --------------------------------------------
      LOOP:  cpu time     43.3899: real time     43.4187

 eigenvalue-minimisations  :     0
 total energy-change (2. order) : 0.2832466E+02  (-0.1075381E+02)
 number of electron      56.0000000 magnetization 
 augmentation part        0.0243490 magnetization 

 Free energy of the ion-electron system (eV)
  ---------------------------------------------------
  alpha Z        PSCENC =         0.92446154
  Ewald energy   TEWEN  =      5822.64067415
  -Hartree energ DENC   =     -7481.73735413
  -exchange      EXHF   =         0.00000000
  -V(xc)+E(xc)   XCENC  =       123.60283075
  PAW double counting   =     12440.10776285   -12383.33741032
  entropy T*S    EENTRO =        -0.00000000
  eigenvalues    EBANDS =      -343.42799407
  atomic energy  EATOM  =      1699.14712637
  ---------------------------------------------------
  free energy    TOTEN  =      -122.07990285 eV

  energy without entropy =     -122.07990285  energy(sigma->0) =     -122.07990285


--------------------------------------------------------------------------------------------------------




--------------------------------------- Iteration      1(   7)  ---------------------------------------


    POTLOK:  cpu time     21.1908: real time     21.1972
    SETDIJ:  cpu time      0.0661: real time      0.0661
    TRIAL :  cpu time      0.5642: real time      0.5643
    CORREC:  cpu time     21.4435: real time     21.4496
    CHARGE:  cpu time      0.1171: real time      0.1172
    --------------------------------------------
      LOOP:  cpu time     43.4106: real time     43.4233

 eigenvalue-minimisations  :     0
 total energy-change (2. order) :-0.1087580E+02  (-0.1403238E+01)
 number of electron      56.0000000 magnetization 
 augmentation part        0.0082946 magnetization 

 Free energy of the ion-electron system (eV)
  ---------------------------------------------------
  alpha Z        PSCENC =         0.92446154
  Ewald energy   TEWEN  =      5822.64067415
  -Hartree energ DENC   =     -7200.64890830
  -exchange      EXHF   =         0.00000000
  -V(xc)+E(xc)   XCENC  =       116.20904363
  PAW double counting   =     15285.41924611   -15227.71713241
  entropy T*S    EENTRO =        -0.00000000
  eigenvalues    EBANDS =      -628.93021453
  atomic energy  EATOM  =      1699.14712637
  ---------------------------------------------------
  free energy    TOTEN  =      -132.95570344 eV

  energy without entropy =     -132.95570344  energy(sigma->0) =     -132.95570344


--------------------------------------------------------------------------------------------------------




--------------------------------------- Iteration      1(   8)  ---------------------------------------


    POTLOK:  cpu time     21.0889: real time     21.0949
    SETDIJ:  cpu time      0.0664: real time      0.0664
    TRIAL :  cpu time      0.5717: real time      0.5721
    CORREC:  cpu time     21.5029: real time     21.5091
    CHARGE:  cpu time      0.1178: real time      0.1179
    --------------------------------------------
      LOOP:  cpu time     43.3656: real time     43.3906

 eigenvalue-minimisations  :     0
 total energy-change (2. order) :-0.1410004E+01  (-0.6224525E+00)
 number of electron      56.0000000 magnetization 
 augmentation part        0.0063533 magnetization 

 Free energy of the ion-electron system (eV)
  ---------------------------------------------------
  alpha Z        PSCENC =         0.92446154
  Ewald energy   TEWEN  =      5822.64067415
  -Hartree energ DENC   =     -7206.31919961
  -exchange      EXHF   =         0.00000000
  -V(xc)+E(xc)   XCENC  =       116.06448843
  PAW double counting   =     17133.11742352   -17075.21994794
  entropy T*S    EENTRO =        -0.00000000
  eigenvalues    EBANDS =      -624.72073373
  atomic energy  EATOM  =      1699.14712637
  ---------------------------------------------------
  free energy    TOTEN  =      -134.36570728 eV

  energy without entropy =     -134.36570728  energy(sigma->0) =     -134.36570728


--------------------------------------------------------------------------------------------------------




--------------------------------------- Iteration      1(   9)  ---------------------------------------


    POTLOK:  cpu time     21.1170: real time     21.1237
    SETDIJ:  cpu time      0.0659: real time      0.0659
    TRIAL :  cpu time      0.5640: real time      0.5644
    CORREC:  cpu time     21.4244: real time     21.4310
    CHARGE:  cpu time      0.1200: real time      0.1200
    --------------------------------------------
      LOOP:  cpu time     43.3030: real time     43.3348

 eigenvalue-minimisations  :     0
 total energy-change (2. order) :-0.5838938E+00  (-0.1972174E+00)
 number of electron      56.0000000 magnetization 
 augmentation part        0.0069210 magnetization 

 Free energy of the ion-electron system (eV)
  ---------------------------------------------------
  alpha Z        PSCENC =         0.92446154
  Ewald energy   TEWEN  =      5822.64067415
  -Hartree energ DENC   =     -7170.57506610
  -exchange      EXHF   =         0.00000000
  -V(xc)+E(xc)   XCENC  =       115.21446605
  PAW double counting   =     17609.32772686   -17551.28538388
  entropy T*S    EENTRO =        -0.00000000
  eigenvalues    EBANDS =      -660.34360604
  atomic energy  EATOM  =      1699.14712637
  ---------------------------------------------------
  free energy    TOTEN  =      -134.94960105 eV

  energy without entropy =     -134.94960105  energy(sigma->0) =     -134.94960105


--------------------------------------------------------------------------------------------------------




--------------------------------------- Iteration      1(  10)  ---------------------------------------


    POTLOK:  cpu time     21.1668: real time     21.1732
    SETDIJ:  cpu time      0.0659: real time      0.0659
    TRIAL :  cpu time      0.5660: real time      0.5661
    CORREC:  cpu time     21.4496: real time     21.4567
    CHARGE:  cpu time      0.1194: real time      0.1194
    --------------------------------------------
      LOOP:  cpu time     43.3814: real time     43.4101

 eigenvalue-minimisations  :     0
 total energy-change (2. order) :-0.1950366E+00  (-0.5174599E-01)
 number of electron      56.0000000 magnetization 
 augmentation part        0.0080195 magnetization 

 Free energy of the ion-electron system (eV)
  ---------------------------------------------------
  alpha Z        PSCENC =         0.92446154
  Ewald energy   TEWEN  =      5822.64067415
  -Hartree energ DENC   =     -7173.05294958
  -exchange      EXHF   =         0.00000000
  -V(xc)+E(xc)   XCENC  =       115.39171098
  PAW double counting   =     17094.21290592   -17036.21532861
  entropy T*S    EENTRO =        -0.00000000
  eigenvalues    EBANDS =      -658.19323840
  atomic energy  EATOM  =      1699.14712637
  ---------------------------------------------------
  free energy    TOTEN  =      -135.14463764 eV

  energy without entropy =     -135.14463764  energy(sigma->0) =     -135.14463764


--------------------------------------------------------------------------------------------------------




--------------------------------------- Iteration      1(  11)  ---------------------------------------


    POTLOK:  cpu time     21.1099: real time     21.1170
    SETDIJ:  cpu time      0.0661: real time      0.0661
    TRIAL :  cpu time      0.5654: real time      0.5659
    CORREC:  cpu time     21.4543: real time     21.4601
    CHARGE:  cpu time      0.1182: real time      0.1182
    --------------------------------------------
      LOOP:  cpu time     43.3273: real time     43.3564

 eigenvalue-minimisations  :     0
 total energy-change (2. order) :-0.5173353E-01  (-0.1652184E-01)
 number of electron      56.0000000 magnetization 
 augmentation part        0.0088509 magnetization 

 Free energy of the ion-electron system (eV)
  ---------------------------------------------------
  alpha Z        PSCENC =         0.92446154
  Ewald energy   TEWEN  =      5822.64067415
  -Hartree energ DENC   =     -7173.89752292
  -exchange      EXHF   =         0.00000000
  -V(xc)+E(xc)   XCENC  =       115.41668381
  PAW double counting   =     16632.25253345   -16574.29769383
  entropy T*S    EENTRO =        -0.00000000
  eigenvalues    EBANDS =      -657.38263374
  atomic energy  EATOM  =      1699.14712637
  ---------------------------------------------------
  free energy    TOTEN  =      -135.19637117 eV

  energy without entropy =     -135.19637117  energy(sigma->0) =     -135.19637117


--------------------------------------------------------------------------------------------------------




--------------------------------------- Iteration      1(  12)  ---------------------------------------


    POTLOK:  cpu time     21.1134: real time     21.1197
    SETDIJ:  cpu time      0.0660: real time      0.0660
    TRIAL :  cpu time      0.5643: real time      0.5647
    CORREC:  cpu time     21.4882: real time     21.4952
    CHARGE:  cpu time      0.1180: real time      0.1180
    --------------------------------------------
      LOOP:  cpu time     43.3792: real time     43.3931

 eigenvalue-minimisations  :     0
 total energy-change (2. order) :-0.1655140E-01  (-0.6346487E-02)
 number of electron      56.0000000 magnetization 
 augmentation part        0.0094248 magnetization 

 Free energy of the ion-electron system (eV)
  ---------------------------------------------------
  alpha Z        PSCENC =         0.92446154
  Ewald energy   TEWEN  =      5822.64067415
  -Hartree energ DENC   =     -7171.16126958
  -exchange      EXHF   =         0.00000000
  -V(xc)+E(xc)   XCENC  =       115.30458640
  PAW double counting   =     16452.96956658   -16395.02719477
  entropy T*S    EENTRO =        -0.00000000
  eigenvalues    EBANDS =      -660.01087326
  atomic energy  EATOM  =      1699.14712637
  ---------------------------------------------------
  free energy    TOTEN  =      -135.21292257 eV

  energy without entropy =     -135.21292257  energy(sigma->0) =     -135.21292257


--------------------------------------------------------------------------------------------------------




--------------------------------------- Iteration      1(  13)  ---------------------------------------


    POTLOK:  cpu time     21.1240: real time     21.1306
    SETDIJ:  cpu time      0.0660: real time      0.0660
    TRIAL :  cpu time      0.5640: real time      0.5641
    CORREC:  cpu time     21.3896: real time     21.3965
    CHARGE:  cpu time      0.1177: real time      0.1177
    --------------------------------------------
      LOOP:  cpu time     43.2756: real time     43.3048

 eigenvalue-minimisations  :     0
 total energy-change (2. order) :-0.6361139E-02  (-0.2728474E-02)
 number of electron      56.0000000 magnetization 
 augmentation part        0.0095957 magnetization 

 Free energy of the ion-electron system (eV)
  ---------------------------------------------------
  alpha Z        PSCENC =         0.92446154
  Ewald energy   TEWEN  =      5822.64067415
  -Hartree energ DENC   =     -7174.21371043
  -exchange      EXHF   =         0.00000000
  -V(xc)+E(xc)   XCENC  =       115.35042685
  PAW double counting   =     16449.02051443   -16391.08941981
  entropy T*S    EENTRO =        -0.00000000
  eigenvalues    EBANDS =      -656.99935682
  atomic energy  EATOM  =      1699.14712637
  ---------------------------------------------------
  free energy    TOTEN  =      -135.21928371 eV

  energy without entropy =     -135.21928371  energy(sigma->0) =     -135.21928371


--------------------------------------------------------------------------------------------------------




--------------------------------------- Iteration      1(  14)  ---------------------------------------


    POTLOK:  cpu time     21.1457: real time     21.1519
    SETDIJ:  cpu time      0.0658: real time      0.0658
    TRIAL :  cpu time      0.5647: real time      0.5652
    CORREC:  cpu time     21.4949: real time     21.5017
    CHARGE:  cpu time      0.1190: real time      0.1190
    --------------------------------------------
      LOOP:  cpu time     43.4039: real time     43.4336

 eigenvalue-minimisations  :     0
 total energy-change (2. order) :-0.2732167E-02  (-0.1012641E-02)
 number of electron      56.0000000 magnetization 
 augmentation part        0.0098063 magnetization 

 Free energy of the ion-electron system (eV)
  ---------------------------------------------------
  alpha Z        PSCENC =         0.92446154
  Ewald energy   TEWEN  =      5822.64067415
  -Hartree energ DENC   =     -7174.63024412
  -exchange      EXHF   =         0.00000000
  -V(xc)+E(xc)   XCENC  =       115.35849426
  PAW double counting   =     16504.54641573   -16446.61513588
  entropy T*S    EENTRO =        -0.00000000
  eigenvalues    EBANDS =      -656.59380792
  atomic energy  EATOM  =      1699.14712637
  ---------------------------------------------------
  free energy    TOTEN  =      -135.22201588 eV

  energy without entropy =     -135.22201588  energy(sigma->0) =     -135.22201588


--------------------------------------------------------------------------------------------------------




--------------------------------------- Iteration      1(  15)  ---------------------------------------


    POTLOK:  cpu time     21.6630: real time     21.6694
    SETDIJ:  cpu time      0.0659: real time      0.0659
    TRIAL :  cpu time      0.5662: real time      0.5667
    CORREC:  cpu time     21.3567: real time     21.3628
    CHARGE:  cpu time      0.1189: real time      0.1189
    --------------------------------------------
      LOOP:  cpu time     43.7995: real time     43.8126

 eigenvalue-minimisations  :     0
 total energy-change (2. order) :-0.1013971E-02  (-0.3522646E-03)
 number of electron      56.0000000 magnetization 
 augmentation part        0.0100600 magnetization 

 Free energy of the ion-electron system (eV)
  ---------------------------------------------------
  alpha Z        PSCENC =         0.92446154
  Ewald energy   TEWEN  =      5822.64067415
  -Hartree energ DENC   =     -7174.36481098
  -exchange      EXHF   =         0.00000000
  -V(xc)+E(xc)   XCENC  =       115.35669863
  PAW double counting   =     16536.72174985   -16478.78743800
  entropy T*S    EENTRO =        -0.00000000
  eigenvalues    EBANDS =      -656.86149140
  atomic energy  EATOM  =      1699.14712637
  ---------------------------------------------------
  free energy    TOTEN  =      -135.22302985 eV

  energy without entropy =     -135.22302985  energy(sigma->0) =     -135.22302985


--------------------------------------------------------------------------------------------------------




--------------------------------------- Iteration      1(  16)  ---------------------------------------


    POTLOK:  cpu time     21.1263: real time     21.1329
    SETDIJ:  cpu time      0.0660: real time      0.0660
    TRIAL :  cpu time      0.5640: real time      0.5649
    CORREC:  cpu time     21.4252: real time     21.4320
    CHARGE:  cpu time      0.1174: real time      0.1179
    --------------------------------------------
      LOOP:  cpu time     43.3121: real time     43.3431

 eigenvalue-minimisations  :     0
 total energy-change (2. order) :-0.3528662E-03  (-0.1162408E-03)
 number of electron      56.0000000 magnetization 
 augmentation part        0.0101321 magnetization 

 Free energy of the ion-electron system (eV)
  ---------------------------------------------------
  alpha Z        PSCENC =         0.92446154
  Ewald energy   TEWEN  =      5822.64067415
  -Hartree energ DENC   =     -7175.10812104
  -exchange      EXHF   =         0.00000000
  -V(xc)+E(xc)   XCENC  =       115.37810422
  PAW double counting   =     16541.59731259   -16483.66283530
  entropy T*S    EENTRO =        -0.00000000
  eigenvalues    EBANDS =      -656.14010524
  atomic energy  EATOM  =      1699.14712637
  ---------------------------------------------------
  free energy    TOTEN  =      -135.22338272 eV

  energy without entropy =     -135.22338272  energy(sigma->0) =     -135.22338272


--------------------------------------------------------------------------------------------------------




--------------------------------------- Iteration      1(  17)  ---------------------------------------


    POTLOK:  cpu time     21.0952: real time     21.1015
    SETDIJ:  cpu time      0.0659: real time      0.0659
    TRIAL :  cpu time      0.5656: real time      0.5656
    CORREC:  cpu time     21.3440: real time     21.3504
    CHARGE:  cpu time      0.1180: real time      0.1180
    --------------------------------------------
      LOOP:  cpu time     43.2040: real time     43.2304

 eigenvalue-minimisations  :     0
 total energy-change (2. order) :-0.1167090E-03  (-0.3942777E-04)
 number of electron      56.0000000 magnetization 
 augmentation part        0.0101229 magnetization 

 Free energy of the ion-electron system (eV)
  ---------------------------------------------------
  alpha Z        PSCENC =         0.92446154
  Ewald energy   TEWEN  =      5822.64067415
  -Hartree energ DENC   =     -7174.89332990
  -exchange      EXHF   =         0.00000000
  -V(xc)+E(xc)   XCENC  =       115.37503039
  PAW double counting   =     16537.80551123   -16479.86984210
  entropy T*S    EENTRO =        -0.00000000
  eigenvalues    EBANDS =      -656.35313110
  atomic energy  EATOM  =      1699.14712637
  ---------------------------------------------------
  free energy    TOTEN  =      -135.22349943 eV

  energy without entropy =     -135.22349943  energy(sigma->0) =     -135.22349943


--------------------------------------------------------------------------------------------------------




--------------------------------------- Iteration      1(  18)  ---------------------------------------


    POTLOK:  cpu time     21.0949: real time     21.1012
    SETDIJ:  cpu time      0.0657: real time      0.0657
    TRIAL :  cpu time      0.5644: real time      0.5647
    CORREC:  cpu time     21.4699: real time     21.4756
    CHARGE:  cpu time      0.1179: real time      0.1179
    --------------------------------------------
      LOOP:  cpu time     43.3421: real time     43.3545

 eigenvalue-minimisations  :     0
 total energy-change (2. order) :-0.3941734E-04  (-0.1354354E-04)
 number of electron      56.0000000 magnetization 
 augmentation part        0.0100822 magnetization 

 Free energy of the ion-electron system (eV)
  ---------------------------------------------------
  alpha Z        PSCENC =         0.92446154
  Ewald energy   TEWEN  =      5822.64067415
  -Hartree energ DENC   =     -7174.86558924
  -exchange      EXHF   =         0.00000000
  -V(xc)+E(xc)   XCENC  =       115.37519875
  PAW double counting   =     16535.16794140   -16477.23193630
  entropy T*S    EENTRO =        -0.00000000
  eigenvalues    EBANDS =      -656.38141551
  atomic energy  EATOM  =      1699.14712637
  ---------------------------------------------------
  free energy    TOTEN  =      -135.22353884 eV

  energy without entropy =     -135.22353884  energy(sigma->0) =     -135.22353884


--------------------------------------------------------------------------------------------------------




--------------------------------------- Iteration      1(  19)  ---------------------------------------


    POTLOK:  cpu time     21.0542: real time     21.0603
    SETDIJ:  cpu time      0.0691: real time      0.0691
    TRIAL :  cpu time      0.5639: real time      0.5644
    CORREC:  cpu time     21.3590: real time     21.3656
    CHARGE:  cpu time      0.1180: real time      0.1180
    --------------------------------------------
      LOOP:  cpu time     43.1818: real time     43.2074

 eigenvalue-minimisations  :     0
 total energy-change (2. order) :-0.1325562E-04  (-0.4708991E-05)
 number of electron      56.0000000 magnetization 
 augmentation part        0.0100403 magnetization 

 Free energy of the ion-electron system (eV)
  ---------------------------------------------------
  alpha Z        PSCENC =         0.92446154
  Ewald energy   TEWEN  =      5822.64067415
  -Hartree energ DENC   =     -7174.90956474
  -exchange      EXHF   =         0.00000000
  -V(xc)+E(xc)   XCENC  =       115.37636937
  PAW double counting   =     16534.27274139   -16476.33679232
  entropy T*S    EENTRO =        -0.00000000
  eigenvalues    EBANDS =      -656.33856786
  atomic energy  EATOM  =      1699.14712637
  ---------------------------------------------------
  free energy    TOTEN  =      -135.22355210 eV

  energy without entropy =     -135.22355210  energy(sigma->0) =     -135.22355210


--------------------------------------------------------------------------------------------------------




--------------------------------------- Iteration      1(  20)  ---------------------------------------


    POTLOK:  cpu time     21.1213: real time     21.1275
    SETDIJ:  cpu time      0.0660: real time      0.0662
    TRIAL :  cpu time      0.5640: real time      0.5641
    CORREC:  cpu time     21.3504: real time     21.3565
    CHARGE:  cpu time      0.1180: real time      0.1185
    --------------------------------------------
      LOOP:  cpu time     43.2385: real time     43.2623

 eigenvalue-minimisations  :     0
 total energy-change (2. order) :-0.4639713E-05  (-0.2325051E-05)
 number of electron      56.0000000 magnetization 
 augmentation part        0.0100223 magnetization 

 Free energy of the ion-electron system (eV)
  ---------------------------------------------------
  alpha Z        PSCENC =         0.92446154
  Ewald energy   TEWEN  =      5822.64067415
  -Hartree energ DENC   =     -7174.80692112
  -exchange      EXHF   =         0.00000000
  -V(xc)+E(xc)   XCENC  =       115.37390875
  PAW double counting   =     16533.15839992   -16475.22233443
  entropy T*S    EENTRO =        -0.00000000
  eigenvalues    EBANDS =      -656.43887192
  atomic energy  EATOM  =      1699.14712637
  ---------------------------------------------------
  free energy    TOTEN  =      -135.22355674 eV

  energy without entropy =     -135.22355674  energy(sigma->0) =     -135.22355674


--------------------------------------------------------------------------------------------------------




--------------------------------------- Iteration      1(  21)  ---------------------------------------


    POTLOK:  cpu time     21.0789: real time     21.0850
    SETDIJ:  cpu time      0.0663: real time      0.0663
    TRIAL :  cpu time      0.5648: real time      0.5649
    CORREC:  cpu time     21.3400: real time     21.3467
    CHARGE:  cpu time      0.1178: real time      0.1179
    --------------------------------------------
      LOOP:  cpu time     43.1795: real time     43.2102

 eigenvalue-minimisations  :     0
 total energy-change (2. order) :-0.2136496E-05  (-0.7371835E-06)
 number of electron      56.0000000 magnetization 
 augmentation part        0.0100162 magnetization 

 Free energy of the ion-electron system (eV)
  ---------------------------------------------------
  alpha Z        PSCENC =         0.92446154
  Ewald energy   TEWEN  =      5822.64067415
  -Hartree energ DENC   =     -7174.84255243
  -exchange      EXHF   =         0.00000000
  -V(xc)+E(xc)   XCENC  =       115.37466922
  PAW double counting   =     16531.46958847   -16473.53372736
  entropy T*S    EENTRO =        -0.00000000
  eigenvalues    EBANDS =      -656.40379883
  atomic energy  EATOM  =      1699.14712637
  ---------------------------------------------------
  free energy    TOTEN  =      -135.22355888 eV

  energy without entropy =     -135.22355888  energy(sigma->0) =     -135.22355888


--------------------------------------------------------------------------------------------------------




--------------------------------------- Iteration      1(  22)  ---------------------------------------


    POTLOK:  cpu time     21.1804: real time     21.1869
    SETDIJ:  cpu time      0.0773: real time      0.0773
    TRIAL :  cpu time      0.5677: real time      0.5683
    CORREC:  cpu time     21.4199: real time     21.4256
    CHARGE:  cpu time      0.1176: real time      0.1176
    --------------------------------------------
      LOOP:  cpu time     43.3767: real time     43.4045

 eigenvalue-minimisations  :     0
 total energy-change (2. order) :-0.7236977E-06  (-0.2572235E-06)
 number of electron      56.0000000 magnetization 
 augmentation part        0.0100184 magnetization 

 Free energy of the ion-electron system (eV)
  ---------------------------------------------------
  alpha Z        PSCENC =         0.92446154
  Ewald energy   TEWEN  =      5822.64067415
  -Hartree energ DENC   =     -7174.82614579
  -exchange      EXHF   =         0.00000000
  -V(xc)+E(xc)   XCENC  =       115.37408649
  PAW double counting   =     16530.44300677   -16472.50717988
  entropy T*S    EENTRO =        -0.00000000
  eigenvalues    EBANDS =      -656.41958924
  atomic energy  EATOM  =      1699.14712637
  ---------------------------------------------------
  free energy    TOTEN  =      -135.22355960 eV

  energy without entropy =     -135.22355960  energy(sigma->0) =     -135.22355960


--------------------------------------------------------------------------------------------------------




--------------------------------------- Iteration      1(  23)  ---------------------------------------


    POTLOK:  cpu time     21.0392: real time     21.0457
    SETDIJ:  cpu time      0.0661: real time      0.0661
    TRIAL :  cpu time      0.5662: real time      0.5668
    CORREC:  cpu time     21.3219: real time     21.3279
    CHARGE:  cpu time      0.1174: real time      0.1174
    --------------------------------------------
      LOOP:  cpu time     43.1394: real time     43.1527

 eigenvalue-minimisations  :     0
 total energy-change (2. order) :-0.2615343E-06  (-0.9852148E-07)
 number of electron      56.0000000 magnetization 
 augmentation part        0.0100220 magnetization 

 Free energy of the ion-electron system (eV)
  ---------------------------------------------------
  alpha Z        PSCENC =         0.92446154
  Ewald energy   TEWEN  =      5822.64067415
  -Hartree energ DENC   =     -7174.82624846
  -exchange      EXHF   =         0.00000000
  -V(xc)+E(xc)   XCENC  =       115.37397629
  PAW double counting   =     16530.39886607   -16472.46304522
  entropy T*S    EENTRO =        -0.00000000
  eigenvalues    EBANDS =      -656.41937059
  atomic energy  EATOM  =      1699.14712637
  ---------------------------------------------------
  free energy    TOTEN  =      -135.22355986 eV

  energy without entropy =     -135.22355986  energy(sigma->0) =     -135.22355986


--------------------------------------------------------------------------------------------------------




--------------------------------------- Iteration      1(  24)  ---------------------------------------


    POTLOK:  cpu time     21.0851: real time     21.0918
    SETDIJ:  cpu time      0.0656: real time      0.0658
    TRIAL :  cpu time      0.5647: real time      0.5648
    CORREC:  cpu time     21.3541: real time     21.3606
    EDDIAG:  cpu time      0.2327: real time      0.2331
    CHARGE:  cpu time      0.1180: real time      0.1181
    --------------------------------------------
      LOOP:  cpu time     43.4377: real time     43.4637

 eigenvalue-minimisations  :     0
 total energy-change (2. order) :-0.9859832E-07  (-0.3177531E-07)
 number of electron      56.0000000 magnetization 
 augmentation part        0.0100238 magnetization 

 Free energy of the ion-electron system (eV)
  ---------------------------------------------------
  alpha Z        PSCENC =         0.92446154
  Ewald energy   TEWEN  =      5822.64067415
  -Hartree energ DENC   =     -7174.83379684
  -exchange      EXHF   =         0.00000000
  -V(xc)+E(xc)   XCENC  =       115.37413136
  PAW double counting   =     16530.75102530   -16472.81520790
  entropy T*S    EENTRO =        -0.00000000
  eigenvalues    EBANDS =      -656.41197394
  atomic energy  EATOM  =      1699.14712637
  ---------------------------------------------------
  free energy    TOTEN  =      -135.22355996 eV

  energy without entropy =     -135.22355996  energy(sigma->0) =     -135.22355996


--------------------------------------------------------------------------------------------------------


  average scaling for gradient   1.0807


 average (electrostatic) potential at core
  the test charge radii are     0.5770  0.4325
  (the norm of the test charge is              1.0000)
       1 -86.5678       2 -86.5679       3 -86.7224       4 -86.7227       5 -86.7226
       6 -86.7227       7 -86.5671       8 -86.5671       9 -86.5672      10 -86.5670
      11 -45.8746      12 -45.8751      13 -45.8744      14 -45.8747      15 -45.8334
      16 -45.8332      17 -45.8332      18 -45.8333      19 -45.8751      20 -45.8749
      21 -45.8748      22 -45.8748      23 -45.8746      24 -45.8748      25 -45.8747
      26 -45.8745



 E-fermi :  -6.6612     XC(G=0):  -0.3133     alpha+bet : -0.1396

 Fermi energy:        -6.6612196522

 k-point     1 :       0.0000    0.0000    0.0000
  band No.  band energies     occupation 
      1     -21.5644      2.00000
      2     -18.9508      2.00000
      3     -18.9506      2.00000
      4     -18.9505      2.00000
      5     -16.3541      2.00000
      6     -16.3534      2.00000
      7     -14.2421      2.00000
      8     -14.2416      2.00000
      9     -14.2415      2.00000
     10     -12.7908      2.00000
     11     -11.1374      2.00000
     12     -10.9709      2.00000
     13     -10.9699      2.00000
     14     -10.9696      2.00000
     15      -9.8515      2.00000
     16      -9.8511      2.00000
     17      -9.8510      2.00000
     18      -9.4940      2.00000
     19      -9.4939      2.00000
     20      -9.4938      2.00000
     21      -7.9236      2.00000
     22      -7.9212      2.00000
     23      -7.8246      2.00000
     24      -7.8244      2.00000
     25      -7.8239      2.00000
     26      -6.7222      2.00000
     27      -6.7217      2.00000
     28      -6.7215      2.00000
     29      -1.1758      0.00000
     30      -0.5282      0.00000
     31      -0.5282      0.00000
     32      -0.5282      0.00000
     33      -0.0442      0.00000
     34      -0.0299      0.00000
     35      -0.0299      0.00000
     36       0.0652      0.00000
     37       0.0923      0.00000
     38       0.1266      0.00000
     39       0.4492      0.00000
     40       0.4593      0.00000
     41       0.4628      0.00000
     42       0.4804      0.00000
     43       0.5867      0.00000
     44       0.6114      0.00000


--------------------------------------------------------------------------------------------------------


 soft charge-density along one line, spin component           1
         0         1         2         3         4         5         6         7         8         9
 total charge-density along one line

 pseudopotential strength for first ion, spin component:           1
 12.697  21.368  -0.000   0.000   0.000  -0.000   0.000   0.000
 21.368  35.961  -0.000   0.000   0.000  -0.000   0.000   0.000
 -0.000  -0.000  -3.174   0.000  -0.000  -5.688   0.000  -0.000
  0.000   0.000   0.000  -3.174   0.000   0.000  -5.689   0.000
  0.000   0.000  -0.000   0.000  -3.173  -0.000   0.000  -5.687
 -0.000  -0.000  -5.688   0.000  -0.000 -10.173   0.000  -0.000
  0.000   0.000   0.000  -5.689   0.000   0.000 -10.175   0.000
  0.000   0.000  -0.000   0.000  -5.687  -0.000   0.000 -10.171
 total augmentation occupancy for first ion, spin component:           1
  6.819  -2.269   0.000  -0.040  -0.000  -0.000  -0.011   0.000
 -2.269   0.785   0.000  -0.006   0.000  -0.000   0.023  -0.000
  0.000   0.000   5.278   0.000  -0.018  -1.650  -0.000   0.003
 -0.040  -0.006   0.000   5.432   0.000  -0.000  -1.708  -0.000
 -0.000   0.000  -0.018   0.000   5.421   0.003  -0.000  -1.675
 -0.000  -0.000  -1.650  -0.000   0.003   0.530   0.000   0.001
 -0.011   0.023  -0.000  -1.708  -0.000   0.000   0.546   0.000
  0.000  -0.000   0.003  -0.000  -1.675   0.001   0.000   0.522


------------------------ aborting loop because EDIFF is reached ----------------------------------------


    FORLOC:  cpu time      0.0608: real time      0.0608
    FORNL :  cpu time      0.0870: real time      0.0870
    FORCOR:  cpu time     21.1623: real time     21.1686
    OFIELD:  cpu time      0.0057: real time      0.0061

 VOLUME and BASIS-vectors are now :
 -----------------------------------------------------------------------------
  energy-cutoff  :     1000.00
  volume of cell :    10648.00
      direct lattice vectors                 reciprocal lattice vectors
    22.000000000  0.000000000  0.000000000     0.045454545  0.000000000  0.000000000
     0.000000000 22.000000000  0.000000000     0.000000000  0.045454545  0.000000000
     0.000000000  0.000000000 22.000000000     0.000000000  0.000000000  0.045454545

  length of vectors
    22.000000000 22.000000000 22.000000000     0.045454545  0.045454545  0.045454545


 FORCES acting on ions:
    Electron-Ion                     Ewald-Force                    Non-Local-Force
 -----------------------------------------------------------------------------------------------
   -.515E-01 -.696E-02 0.263E+03   0.513E-01 0.727E-02 -.263E+03   0.497E-03 -.117E-02 -.232E+00
   0.307E-01 -.635E-03 -.263E+03   -.311E-01 0.413E-03 0.263E+03   0.128E-02 0.109E-02 0.229E+00
   -.257E+02 -.195E+03 0.139E+03   0.258E+02 0.196E+03 -.140E+03   -.657E-01 -.505E+00 0.360E+00
   0.195E+03 -.257E+02 -.139E+03   -.196E+03 0.258E+02 0.140E+03   0.504E+00 -.670E-01 -.360E+00
   0.257E+02 0.195E+03 0.139E+03   -.258E+02 -.196E+03 -.140E+03   0.652E-01 0.504E+00 0.360E+00
   -.195E+03 0.257E+02 -.139E+03   0.196E+03 -.258E+02 0.140E+03   -.503E+00 0.671E-01 -.362E+00
   0.160E+03 -.209E+03 -.123E+00   -.160E+03 0.209E+03 0.124E+00   -.136E+00 0.188E+00 -.224E-02
   0.209E+03 0.160E+03 0.163E+00   -.209E+03 -.160E+03 -.165E+00   -.189E+00 -.137E+00 0.448E-02
   -.160E+03 0.209E+03 -.145E+00   0.160E+03 -.209E+03 0.146E+00   0.138E+00 -.188E+00 -.287E-02
   -.209E+03 -.160E+03 0.872E-01   0.209E+03 0.160E+03 -.892E-01   0.189E+00 0.139E+00 0.155E-02
   0.553E+02 -.731E+01 0.834E+02   -.597E+02 0.789E+01 -.867E+02   0.441E+01 -.581E+00 0.336E+01
   0.732E+01 0.553E+02 -.833E+02   -.790E+01 -.597E+02 0.867E+02   0.582E+00 0.441E+01 -.336E+01
   -.553E+02 0.731E+01 0.833E+02   0.597E+02 -.789E+01 -.867E+02   -.441E+01 0.581E+00 0.336E+01
   -.731E+01 -.553E+02 -.833E+02   0.789E+01 0.597E+02 0.867E+02   -.582E+00 -.441E+01 -.336E+01
   -.111E+02 -.842E+02 0.601E+02   0.117E+02 0.888E+02 -.633E+02   -.600E+00 -.454E+01 0.324E+01
   0.842E+02 -.111E+02 -.601E+02   -.888E+02 0.117E+02 0.633E+02   0.454E+01 -.599E+00 -.324E+01
   0.111E+02 0.842E+02 0.601E+02   -.117E+02 -.888E+02 -.633E+02   0.600E+00 0.454E+01 0.324E+01
   -.842E+02 0.111E+02 -.601E+02   0.888E+02 -.117E+02 0.633E+02   -.454E+01 0.600E+00 -.324E+01
   0.820E+02 -.423E+02 0.394E+02   -.866E+02 0.431E+02 -.425E+02   0.455E+01 -.768E+00 0.314E+01
   0.424E+02 0.820E+02 -.393E+02   -.431E+02 -.866E+02 0.425E+02   0.770E+00 0.455E+01 -.314E+01
   -.820E+02 0.424E+02 0.393E+02   0.866E+02 -.431E+02 -.425E+02   -.455E+01 0.770E+00 0.314E+01
   -.423E+02 -.820E+02 -.394E+02   0.431E+02 0.866E+02 0.425E+02   -.769E+00 -.455E+01 -.314E+01
   0.192E+02 -.901E+02 -.396E+02   -.188E+02 0.947E+02 0.427E+02   -.465E+00 -.458E+01 -.315E+01
   0.901E+02 0.192E+02 0.396E+02   -.947E+02 -.188E+02 -.427E+02   0.458E+01 -.465E+00 0.315E+01
   -.192E+02 0.901E+02 -.396E+02   0.188E+02 -.947E+02 0.427E+02   0.465E+00 0.458E+01 -.315E+01
   -.901E+02 -.193E+02 0.396E+02   0.947E+02 0.188E+02 -.427E+02   -.458E+01 0.463E+00 0.315E+01
 -----------------------------------------------------------------------------------------------
   -.401E-02 -.123E-02 0.127E-03   0.242E-12 0.782E-13 0.171E-12   0.407E-02 0.117E-02 -.399E-04


 POSITION                                       TOTAL-FORCE (eV/Angst)
 -----------------------------------------------------------------------------------
     11.00033     11.00006      9.22329         0.000306     -0.000833     -0.334174
     10.99981     10.99999     12.77707         0.000865      0.000825      0.331908
     11.16530     12.24794     10.10991         0.030784      0.227425     -0.161640
      9.75197     11.16532     11.89040        -0.228207      0.029739      0.161573
     10.83484      9.75212     10.10977        -0.030755     -0.228385     -0.162742
     12.24780     10.83463     11.89061         0.229060     -0.029787      0.160999
      9.92053     12.41087     11.00134        -0.202302      0.265960     -0.000206
      9.58918      9.92069     10.99865        -0.266890     -0.202962      0.002486
     12.07938      9.58908     11.00150         0.203770     -0.266469     -0.001077
     12.41075     12.07938     10.99913         0.266743      0.204883     -0.000575
     10.12250     11.11569      8.56868         0.012262     -0.000328     -0.020391
     10.88401     10.12194     13.43126         0.000264      0.011609      0.022072
     11.87861     10.88437      8.56922        -0.013403      0.000833     -0.019746
     11.11564     11.87808     13.43132        -0.001162     -0.013166      0.020729
     11.28308     13.13899      9.47466         0.002903      0.012006     -0.008594
      8.86077     11.28300     12.52556        -0.010232      0.002298      0.007986
     10.71699      8.86110      9.47442        -0.001850     -0.011006     -0.008107
     13.13892     10.71682     12.52582         0.010415     -0.002110      0.008995
      9.02510     12.55174     10.37645        -0.008600      0.021998      0.005160
      9.44800      9.02511     11.62331        -0.021216     -0.007742     -0.005187
     12.97502      9.44796     10.37686         0.006999     -0.020620      0.005692
     12.55165     12.97493     11.62391         0.021256      0.007263     -0.004895
     10.02212     13.31003     11.62874        -0.021007      0.013129     -0.010200
      8.69013     10.02241     10.37117        -0.013674     -0.020487      0.009160
     11.97774      8.68997     11.62893         0.019861     -0.013587     -0.009722
     13.30987     11.97806     10.37165         0.013809      0.019515      0.010495
 -----------------------------------------------------------------------------------
    total drift:                                0.000057     -0.000060      0.000087


--------------------------------------------------------------------------------------------------------



  FREE ENERGIE OF THE ION-ELECTRON SYSTEM (eV)
  ---------------------------------------------------
  free  energy   TOTEN  =      -135.22355996 eV

  energy  without entropy=     -135.22355996  energy(sigma->0) =     -135.22355996



--------------------------------------------------------------------------------------------------------


    POTLOK:  cpu time     21.1377: real time     21.1444


--------------------------------------------------------------------------------------------------------


 stress matrix after NEB project (eV)
      0.00000      0.00000      0.00000
      0.00000      0.00000      0.00000
      0.00000      0.00000      0.00000
  FORCES: max atom, RMS     0.336347    0.195762
  FORCE total and by dimension    0.998192    0.334174
  Stress total and by dimension    0.000000    0.000000
     LOOP+:  cpu time    893.1622: real time    893.7106
    4ORBIT:  cpu time      0.0000: real time      0.0000

 total amount of memory used by VASP MPI-rank0    91608. kBytes
=======================================================================

   base      :      30000. kBytes
   nonl-proj :       3244. kBytes
   fftplans  :      20101. kBytes
   grid      :      35112. kBytes
   one-center:          1. kBytes
   wavefun   :       3150. kBytes

  
  
 General timing and accounting informations for this job:
 ========================================================
  
                  Total CPU time used (sec):      922.318
                            User time (sec):      910.645
                          System time (sec):       11.672
                         Elapsed time (sec):      930.331
  
                   Maximum memory used (kb):      613372.
                   Average memory used (kb):          N/A
  
                          Minor page faults:       350967
                          Major page faults:          349
                 Voluntary context switches:         6371
