 vasp.6.4.1 05Apr23 (build Jun  6 2023 14:46:38) gamma-only                      
 executed on        HPECrayEX_GCC date 2024.08.20  21:02:03
 running  256 mpi-ranks, with    1 threads/rank, on    2 nodes
 distrk:  each k-point on  128 cores,    2 groups
 distr:  one band on NCORE=  32 cores,    4 groups


--------------------------------------------------------------------------------------------------------


 INCAR:
   ALGO = Conjugate
   KPAR = 2
   NCORE = 32
   PREC = Accurate
   EDIFF = 1E-7
   ENCUT = 1000
   ISMEAR = 0
   SIGMA = 0.01
   ISIF = 0
   SYMPREC = 1E-7
   LWAVE = .FALSE.
   LCHARG = .FALSE.

 POTCAR:    PAW_PBE C_h 06Feb2004                 
 POTCAR:    PAW_PBE H_h 06Feb2004                 
 POTCAR:    PAW_PBE C_h 06Feb2004                 
   VRHFIN =C: s2p2                                                                                  
   LEXCH  = PE                                                                                      
   EATOM  =   147.1560 eV,   10.8157 Ry                                                             
                                                                                                    
   TITEL  = PAW_PBE C_h 06Feb2004                                                                   
   LULTRA =        F    use ultrasoft PP ?                                                          
   IUNSCR =        1    unscreen: 0-lin 1-nonlin 2-no                                               
   RPACOR =    0.800    partial core radius                                                         
   POMASS =   12.011; ZVAL   =    4.000    mass and valenz                                          
   RCORE  =    1.100    outmost cutoff radius                                                       
   RWIGS  =    1.630; RWIGS  =    0.863    wigner-seitz radius (au A)                               
   ENMAX  =  700.000; ENMIN  =  500.000 eV                                                          
   ICORE  =        2    local potential                                                             
   LCOR   =        T    correct aug charges                                                         
   LPAW   =        T    paw PP                                                                      
   EAUG   =  946.768                                                                                
   DEXC   =    0.000                                                                                
   RMAX   =    1.128    core radius for proj-oper                                                   
   RAUG   =    1.300    factor for augmentation sphere                                              
   RDEP   =    1.162    radius for radial grids                                                     
   RDEPT  =    1.088    core radius for aug-charge                                                  
                                                                                                    
   Atomic configuration                                                                             
    4 entries                                                                                       
     n  l   j            E        occ.                                                              
     1  0  0.50      -273.3789   2.0000                                                             
     2  0  0.50       -13.7508   2.0000                                                             
     2  1  0.50        -5.2854   2.0000                                                             
     3  2  1.50        -5.4423   0.0000                                                             
   Description                                                                                      
     l       E           TYP  RCUT    TYP  RCUT                                                     
     0    -13.7508458     23  1.100                                                                 
     0     -8.2022199     23  1.100                                                                 
     1     -5.2854383     23  1.100                                                                 
     1      1.1560700     23  1.100                                                                 
     2     -5.4423304      7  1.100                                                                 
  local pseudopotential read in
  partial core-charges read in
  partial kinetic energy density read in
  atomic valenz-charges read in
  non local Contribution for L=           0  read in
    real space projection operators read in
  non local Contribution for L=           0  read in
    real space projection operators read in
  non local Contribution for L=           1  read in
    real space projection operators read in
  non local Contribution for L=           1  read in
    real space projection operators read in
    PAW grid and wavefunctions read in

   number of l-projection  operators is LMAX  =           4
   number of lm-projection operators is LMMAX =           8

 POTCAR:    PAW_PBE H_h 06Feb2004                 
   VRHFIN =H: ultrasoft test                                                                        
   LEXCH  = PE                                                                                      
   EATOM  =    12.4884 eV,    0.9179 Ry                                                             
                                                                                                    
   TITEL  = PAW_PBE H_h 06Feb2004                                                                   
   LULTRA =        F    use ultrasoft PP ?                                                          
   IUNSCR =        0    unscreen: 0-lin 1-nonlin 2-no                                               
   RPACOR =    0.000    partial core radius                                                         
   POMASS =    1.000; ZVAL   =    1.000    mass and valenz                                          
   RCORE  =    0.800    outmost cutoff radius                                                       
   RWIGS  =    0.700; RWIGS  =    0.370    wigner-seitz radius (au A)                               
   ENMAX  =  700.000; ENMIN  =  350.000 eV                                                          
   RCLOC  =    0.701    cutoff for local pot                                                        
   LCOR   =        T    correct aug charges                                                         
   LPAW   =        T    paw PP                                                                      
   EAUG   = 1000.000                                                                                
   RMAX   =    0.819    core radius for proj-oper                                                   
   RAUG   =    1.000    factor for augmentation sphere                                              
   RDEP   =    0.817    radius for radial grids                                                     
   RDEPT  =    0.817    core radius for aug-charge                                                  
                                                                                                    
   Atomic configuration                                                                             
    2 entries                                                                                       
     n  l   j            E        occ.                                                              
     1  0  0.50        -6.4927   1.0000                                                             
     2  1  0.50        -3.4015   0.0000                                                             
   Description                                                                                      
     l       E           TYP  RCUT    TYP  RCUT                                                     
     0     -6.4927493     23  0.800                                                                 
     0      6.8029130     23  0.800                                                                 
     1     -6.8029130     23  0.800                                                                 
  local pseudopotential read in
  atomic valenz-charges read in
  non local Contribution for L=           0  read in
    real space projection operators read in
  non local Contribution for L=           0  read in
    real space projection operators read in
  non local Contribution for L=           1  read in
    real space projection operators read in
    PAW grid and wavefunctions read in

   number of l-projection  operators is LMAX  =           3
   number of lm-projection operators is LMMAX =           5

 -----------------------------------------------------------------------------
|                                                                             |
|               ----> ADVICE to this user running VASP <----                  |
|                                                                             |
|     You have a (more or less) 'large supercell' and for larger cells it     |
|     might be more efficient to use real-space projection operators.         |
|     Therefore, try LREAL= Auto in the INCAR file.                           |
|     Mind: For very accurate calculation, you might also keep the            |
|     reciprocal projection scheme (i.e. LREAL=.FALSE.).                      |
|                                                                             |
 -----------------------------------------------------------------------------

  PAW_PBE C_h 06Feb2004                 :
 energy of atom  1       EATOM= -147.1560
 kinetic energy error for atom=    0.0031 (will be added to EATOM!!)
  PAW_PBE H_h 06Feb2004                 :
 energy of atom  2       EATOM=  -12.4884
 kinetic energy error for atom=    0.0006 (will be added to EATOM!!)


 POSCAR:  C  H
  positions in cartesian coordinates
  No initial velocities read in
 exchange correlation table for  LEXCH =        8
   RHO(1)=    0.500       N(1)  =     2000
   RHO(2)=  100.500       N(2)  =     4000

 VTST: version 4.1, (05/19/21)

 CHAIN: initializing optimizer
 
 OPT: Using VASP Dynamics algorithm
 CHAIN: Read ICHAIN            0

 POSCAR:  C  H
  positions in cartesian coordinates
  No initial velocities read in



--------------------------------------------------------------------------------------------------------


 ion  position               nearest neighbor table
   1  0.500  0.500  0.419-  11 1.10  13 1.10   3 1.54   5 1.54
   2  0.500  0.500  0.581-  12 1.10  14 1.10   4 1.54   6 1.54
   3  0.508  0.557  0.460-  15 1.10  10 1.54   1 1.54   7 1.54
   4  0.443  0.508  0.540-  16 1.10   7 1.54   2 1.54   8 1.54
   5  0.492  0.443  0.460-  17 1.10   8 1.54   1 1.54   9 1.54
   6  0.557  0.492  0.540-  18 1.10   9 1.54   2 1.54  10 1.54
   7  0.451  0.564  0.500-  19 1.10  23 1.10   4 1.54   3 1.54
   8  0.436  0.451  0.500-  20 1.10  24 1.10   5 1.54   4 1.54
   9  0.549  0.436  0.500-  21 1.10  25 1.10   6 1.54   5 1.54
  10  0.564  0.549  0.500-  22 1.10  26 1.10   3 1.54   6 1.54
  11  0.460  0.505  0.389-   1 1.10
  12  0.495  0.460  0.611-   2 1.10
  13  0.540  0.495  0.390-   1 1.10
  14  0.505  0.540  0.611-   2 1.10
  15  0.513  0.597  0.431-   3 1.10
  16  0.403  0.513  0.569-   4 1.10
  17  0.487  0.403  0.431-   5 1.10
  18  0.597  0.487  0.569-   6 1.10
  19  0.410  0.571  0.472-   7 1.10
  20  0.429  0.410  0.528-   8 1.10
  21  0.590  0.429  0.472-   9 1.10
  22  0.571  0.590  0.528-  10 1.10
  23  0.456  0.605  0.529-   7 1.10
  24  0.395  0.456  0.471-   8 1.10
  25  0.544  0.395  0.529-   9 1.10
  26  0.605  0.544  0.471-  10 1.10

  LATTYP: Found a simple cubic cell.
 ALAT       =    22.0000000000
  
  Lattice vectors:
  
 A1 = (  22.0000000000,   0.0000000000,   0.0000000000)
 A2 = (   0.0000000000,  22.0000000000,   0.0000000000)
 A3 = (   0.0000000000,   0.0000000000,  22.0000000000)


Analysis of symmetry for initial positions (statically):
=====================================================================
 Subroutine PRICEL returns:
 Original cell was already a primitive cell.
 

 Routine SETGRP: Setting up the symmetry group for a 
 simple cubic supercell.


 Subroutine GETGRP returns: Found  1 space group operations
 (whereof  1 operations were pure point group operations)
 out of a pool of 48 trial point group operations.


The static configuration has the point symmetry C_1 .


Analysis of symmetry for dynamics (positions and initial velocities):
=====================================================================
 Subroutine PRICEL returns:
 Original cell was already a primitive cell.
 

 Routine SETGRP: Setting up the symmetry group for a 
 simple cubic supercell.


 Subroutine GETGRP returns: Found  1 space group operations
 (whereof  1 operations were pure point group operations)
 out of a pool of 48 trial point group operations.


The dynamic configuration has the point symmetry C_1 .


 Subroutine INISYM returns: Found  1 space group operations
 (whereof  1 operations are pure point group operations),
 and found     1 'primitive' translations


----------------------------------------------------------------------------------------

                                     Primitive cell                                     

  volume of cell :   10648.0000

  direct lattice vectors                    reciprocal lattice vectors
    22.000000000  0.000000000  0.000000000     0.045454545  0.000000000  0.000000000
     0.000000000 22.000000000  0.000000000     0.000000000  0.045454545  0.000000000
     0.000000000  0.000000000 22.000000000     0.000000000  0.000000000  0.045454545

  length of vectors
    22.000000000 22.000000000 22.000000000     0.045454545  0.045454545  0.045454545

  position of ions in fractional coordinates (direct lattice)
     0.500015000  0.500002727  0.419240455
     0.499991364  0.499999545  0.580775909
     0.507513636  0.556724545  0.459541364
     0.443271364  0.507514545  0.540472727
     0.492492727  0.443278182  0.459535000
     0.556718182  0.492483182  0.540482273
     0.450933182  0.564130455  0.500060909
     0.435871818  0.450940455  0.499938636
     0.549062727  0.435867273  0.500068182
     0.564125000  0.549062727  0.499960455
     0.460113636  0.505258636  0.389485455
     0.494727727  0.460088182  0.610511818
     0.539936818  0.494744091  0.389510000
     0.505256364  0.539912727  0.610514545
     0.512867273  0.597226818  0.430666364
     0.402762273  0.512863636  0.569343636
     0.487135909  0.402777273  0.430655455
     0.597223636  0.487128182  0.569355455
     0.410231818  0.570533636  0.471656818
     0.429454545  0.410232273  0.528332273
     0.589773636  0.429452727  0.471675455
     0.570529545  0.589769545  0.528359545
     0.455550909  0.605001364  0.528579091
     0.395005909  0.455564091  0.471416818
     0.544442727  0.394998636  0.528587727
     0.604994091  0.544457273  0.471438636

  ion indices of the primitive-cell ions
   primitive index   ion index
                 1           1
                 2           2
                 3           3
                 4           4
                 5           5
                 6           6
                 7           7
                 8           8
                 9           9
                10          10
                11          11
                12          12
                13          13
                14          14
                15          15
                16          16
                17          17
                18          18
                19          19
                20          20
                21          21
                22          22
                23          23
                24          24
                25          25
                26          26

----------------------------------------------------------------------------------------



 KPOINTS: auto                                    

Automatic generation of k-mesh.
 Grid dimensions read from file:
 generate k-points for:    1    1    1

 Generating k-lattice:

  Cartesian coordinates                     Fractional coordinates (reciprocal lattice)
     0.045454545  0.000000000  0.000000000     1.000000000  0.000000000  0.000000000
     0.000000000  0.045454545  0.000000000     0.000000000  1.000000000  0.000000000
     0.000000000  0.000000000  0.045454545     0.000000000  0.000000000  1.000000000

  Length of vectors
     0.045454545  0.045454545  0.045454545

  Shift w.r.t. Gamma in fractional coordinates (k-lattice)
     0.000000000  0.000000000  0.000000000

 
 Subroutine IBZKPT returns following result:
 ===========================================
 
 Found      1 irreducible k-points:
 
 Following reciprocal coordinates:
            Coordinates               Weight
  0.000000  0.000000  0.000000      1.000000
 
 Following cartesian coordinates:
            Coordinates               Weight
  0.000000  0.000000  0.000000      1.000000
 


--------------------------------------------------------------------------------------------------------




 Dimension of arrays:
   k-points           NKPTS =      1   k-points in BZ     NKDIM =      1   number of bands    NBANDS=     44
   number of dos      NEDOS =    301   number of ions     NIONS =     26
   non local maximal  LDIM  =      4   non local SUM 2l+1 LMDIM =      8
   total plane-waves  NPLWV = ******
   max r-space proj   IRMAX =      1   max aug-charges    IRDMAX=   8811
   dimension x,y,z NGX =   240 NGY =  240 NGZ =  240
   dimension x,y,z NGXF=   480 NGYF=  480 NGZF=  480
   support grid    NGXF=   480 NGYF=  480 NGZF=  480
   ions per type =              10  16
   NGX,Y,Z   is equivalent  to a cutoff of  18.14, 18.14, 18.14 a.u.
   NGXF,Y,Z  is equivalent  to a cutoff of  36.27, 36.27, 36.27 a.u.

 SYSTEM =  unknown system                          
 POSCAR =   C  H                                   

 Startparameter for this run:
   NWRITE =      2    write-flag & timer
   PREC   = accura    normal or accurate (medium, high low for compatibility)
   ISTART =      0    job   : 0-new  1-cont  2-samecut
   ICHARG =      2    charge: 1-file 2-atom 10-const
   ISPIN  =      1    spin polarized calculation?
   LNONCOLLINEAR =      F non collinear calculations
   LSORBIT =      F    spin-orbit coupling
   INIWAV =      1    electr: 0-lowe 1-rand  2-diag
   LASPH  =      F    aspherical Exc in radial PAW
 Electronic Relaxation 1
   ENCUT  = 1000.0 eV  73.50 Ry    8.57 a.u.  56.73 56.73 56.73*2*pi/ulx,y,z
   ENINI  = 1000.0     initial cutoff
   ENAUG  = 1000.0 eV  augmentation charge cutoff
   NELM   =     60;   NELMIN=  2; NELMDL= -5     # of ELM steps 
   EDIFF  = 0.1E-06   stopping-criterion for ELM
   LREAL  =      F    real-space projection
   NLSPLINE    = F    spline interpolate recip. space projectors
   LCOMPAT=      F    compatible to vasp.4.4
   GGA_COMPAT  = T    GGA compatible to vasp.4.4-vasp.4.6
   LMAXPAW     = -100 max onsite density
   LMAXMIX     =    2 max onsite mixed and CHGCAR
   VOSKOWN=      0    Vosko Wilk Nusair interpolation
   ROPT   =    0.00000   0.00000
 Ionic relaxation
   EDIFFG = 0.1E-05   stopping-criterion for IOM
   NSW    =      0    number of steps for IOM
   NBLOCK =      1;   KBLOCK =      1    inner block; outer block 
   IBRION =     -1    ionic relax: 0-MD 1-quasi-New 2-CG
   NFREE  =      0    steps in history (QN), initial steepest desc. (CG)
   ISIF   =      0    stress and relaxation
   IWAVPR =     10    prediction:  0-non 1-charg 2-wave 3-comb
   ISYM   =      2    0-nonsym 1-usesym 2-fastsym
   LCORR  =      T    Harris-Foulkes like correction to forces

   POTIM  = 0.5000    time-step for ionic-motion
   TEIN   =    0.0    initial temperature
   TEBEG  =    0.0;   TEEND  =   0.0 temperature during run
   SMASS  =  -3.00    Nose mass-parameter (am)
   estimated Nose-frequenzy (Omega)   =  0.10E-29 period in steps = 0.13E+47 mass=  -0.111E-25a.u.
   SCALEE = 1.0000    scale energy and forces
   NPACO  =    256;   APACO  = 10.0  distance and # of slots for P.C.
   PSTRESS=    0.0 pullay stress

  Mass of Ions in am
   POMASS =  12.01  1.00
  Ionic Valenz
   ZVAL   =   4.00  1.00
  Atomic Wigner-Seitz radii
   RWIGS  =  -1.00 -1.00
  virtual crystal weights 
   VCA    =   1.00  1.00
   NELECT =      56.0000    total number of electrons
   NUPDOWN=      -1.0000    fix difference up-down

 DOS related values:
   EMIN   =  10.00;   EMAX   =-10.00  energy-range for DOS
   EFERMI =   0.00;   METHOD = LEGACY      
   ISMEAR =     0;   SIGMA  =   0.01  broadening in eV -4-tet -1-fermi 0-gaus

 Electronic relaxation 2 (details)
   IALGO  =     58    algorithm
   LDIAG  =      T    sub-space diagonalisation (order eigenvalues)
   LSUBROT=      F    optimize rotation matrix (better conditioning)
   TURBO    =      0    0=normal 1=particle mesh
   IRESTART =      0    0=no restart 2=restart with 2 vectors
   NREBOOT  =      0    no. of reboots
   NMIN     =      0    reboot dimension
   EREF     =   0.00    reference energy to select bands
   IMIX   =      4    mixing-type and parameters
     AMIX     =   0.40;   BMIX     =  1.00
     AMIX_MAG =   1.60;   BMIX_MAG =  1.00
     AMIN     =   0.10
     WC   =   100.;   INIMIX=   1;  MIXPRE=   1;  MAXMIX= -45

 Intra band minimization:
   WEIMIN = 0.0000     energy-eigenvalue tresh-hold
   EBREAK =  0.57E-09  absolut break condition
   DEPER  =   0.30     relativ break condition  

   TIME   =   0.40     timestep for ELM

  volume/ion in A,a.u.               =     409.54      2763.70
  Fermi-wavevector in a.u.,A,eV,Ry     =   0.284696  0.537998  1.102778  0.081052
  Thomas-Fermi vector in A             =   1.137744

 Write flags
   LWAVE        =      F    write WAVECAR
   LDOWNSAMPLE  =      F    k-point downsampling of WAVECAR
   LCHARG       =      F    write CHGCAR
   LVTOT        =      F    write LOCPOT, total local potential
   LVHAR        =      F    write LOCPOT, Hartree potential only
   LELF         =      F    write electronic localiz. function (ELF)
   LORBIT       =      0    0 simple, 1 ext, 2 COOP (PROOUT), +10 PAW based schemes


 Dipole corrections
   LMONO  =      F    monopole corrections only (constant potential shift)
   LDIPOL =      F    correct potential (dipole corrections)
   IDIPOL =      0    1-x, 2-y, 3-z, 4-all directions 
   EPSILON=  1.0000000 bulk dielectric constant

 Exchange correlation treatment:
   GGA     =    --    GGA type
   LEXCH   =     8    internal setting for exchange type
   LIBXC   =     F    Libxc                    
   VOSKOWN =     0    Vosko Wilk Nusair interpolation
   LHFCALC =     F    Hartree Fock is set to
   LHFONE  =     F    Hartree Fock one center treatment
   AEXX    =    0.0000 exact exchange contribution

 Linear response parameters
   LEPSILON=     F    determine dielectric tensor
   LRPA    =     F    only Hartree local field effects (RPA)
   LNABLA  =     F    use nabla operator in PAW spheres
   LVEL    =     F    velocity operator in full k-point grid
   CSHIFT  =0.1000    complex shift for real part using Kramers Kronig
   OMEGAMAX=  -1.0    maximum frequency
   DEG_THRESHOLD= 0.2000000E-02 threshold for treating states as degnerate
   RTIME   =   -0.100 relaxation time in fs
  (WPLASMAI=    0.000 imaginary part of plasma frequency in eV, 0.658/RTIME)
   DFIELD  = 0.0000000 0.0000000 0.0000000 field for delta impulse in time

  Optional k-point grid parameters
   LKPOINTS_OPT  =     F    use optional k-point grid
   KPOINTS_OPT_MODE=     1    mode for optional k-point grid

 Orbital magnetization related:
   ORBITALMAG=     F  switch on orbital magnetization
   LCHIMAG   =     F  perturbation theory with respect to B field
   DQ        =  0.001000  dq finite difference perturbation B field
   LLRAUG    =     F  two centre corrections for induced B field
   LBONE     =     F  B-component reconstruction in AE one-centre
   LVGVCALC  =     T  calculate vGv susceptibility
   LVGVAPPL  =     F  apply vGv susceptibility instead of pGv for G=0

 Random number generation:
   RANDOM_GENERATOR = DEFAULT
   PCG_SEED         = not used


--------------------------------------------------------------------------------------------------------


 Static calculation
 charge density and potential will be updated during run
 non-spin polarized calculation
 Conjugate gradient for all bands (Freysoldt, et al. PRB 79, 241103 (2009))
 preconditioned conjugated gradient                                        
 perform sub-space diagonalisation
    before iterative eigenvector-optimisation
 modified Broyden-mixing scheme, WC =      100.0
 initial mixing is a Kerker type mixing with AMIX =  0.4000 and BMIX =      1.0000
 Hartree-type preconditioning will be used
 using additional bands           16
 reciprocal scheme for non local part
 use partial core corrections
 no Harris-corrections to forces 
 use gradient corrections 
 use of overlap-Matrix (Vanderbilt PP)
 Gauss-broadening in eV      SIGMA  =   0.01


--------------------------------------------------------------------------------------------------------


  energy-cutoff  :     1000.00
  volume of cell :    10648.00
      direct lattice vectors                 reciprocal lattice vectors
    22.000000000  0.000000000  0.000000000     0.045454545  0.000000000  0.000000000
     0.000000000 22.000000000  0.000000000     0.000000000  0.045454545  0.000000000
     0.000000000  0.000000000 22.000000000     0.000000000  0.000000000  0.045454545

  length of vectors
    22.000000000 22.000000000 22.000000000     0.045454545  0.045454545  0.045454545



 k-points in units of 2pi/SCALE and weight: auto                                    
   0.00000000  0.00000000  0.00000000       1.000

 k-points in reciprocal lattice and weights: auto                                    
   0.00000000  0.00000000  0.00000000       1.000

 position of ions in fractional coordinates (direct lattice) 
   0.50001500  0.50000273  0.41924045
   0.49999136  0.49999955  0.58077591
   0.50751364  0.55672455  0.45954136
   0.44327136  0.50751455  0.54047273
   0.49249273  0.44327818  0.45953500
   0.55671818  0.49248318  0.54048227
   0.45093318  0.56413045  0.50006091
   0.43587182  0.45094045  0.49993864
   0.54906273  0.43586727  0.50006818
   0.56412500  0.54906273  0.49996045
   0.46011364  0.50525864  0.38948545
   0.49472773  0.46008818  0.61051182
   0.53993682  0.49474409  0.38951000
   0.50525636  0.53991273  0.61051455
   0.51286727  0.59722682  0.43066636
   0.40276227  0.51286364  0.56934364
   0.48713591  0.40277727  0.43065545
   0.59722364  0.48712818  0.56935545
   0.41023182  0.57053364  0.47165682
   0.42945455  0.41023227  0.52833227
   0.58977364  0.42945273  0.47167545
   0.57052955  0.58976955  0.52835955
   0.45555091  0.60500136  0.52857909
   0.39500591  0.45556409  0.47141682
   0.54444273  0.39499864  0.52858773
   0.60499409  0.54445727  0.47143864

 position of ions in cartesian coordinates  (Angst):
  11.00033000 11.00006000  9.22329000
  10.99981000 10.99999000 12.77707000
  11.16530000 12.24794000 10.10991000
   9.75197000 11.16532000 11.89040000
  10.83484000  9.75212000 10.10977000
  12.24780000 10.83463000 11.89061000
   9.92053000 12.41087000 11.00134000
   9.58918000  9.92069000 10.99865000
  12.07938000  9.58908000 11.00150000
  12.41075000 12.07938000 10.99913000
  10.12250000 11.11569000  8.56868000
  10.88401000 10.12194000 13.43126000
  11.87861000 10.88437000  8.56922000
  11.11564000 11.87808000 13.43132000
  11.28308000 13.13899000  9.47466000
   8.86077000 11.28300000 12.52556000
  10.71699000  8.86110000  9.47442000
  13.13892000 10.71682000 12.52582000
   9.02510000 12.55174000 10.37645000
   9.44800000  9.02511000 11.62331000
  12.97502000  9.44796000 10.37686000
  12.55165000 12.97493000 11.62391000
  10.02212000 13.31003000 11.62874000
   8.69013000 10.02241000 10.37117000
  11.97774000  8.68997000 11.62893000
  13.30987000 11.97806000 10.37165000



--------------------------------------------------------------------------------------------------------


 use parallel FFT for orbitals z direction half grid
 k-point   1 :   0.0000 0.0000 0.0000  plane waves:  381993

 maximum and minimum number of plane-waves per node :     11948    11928

 maximum number of plane-waves:    381993
 maximum index in each direction: 
   IXMAX=   56   IYMAX=   56   IZMAX=   56
   IXMIN=  -56   IYMIN=  -56   IZMIN=    0


 parallel 3D FFT for wavefunctions:
    minimum data exchange during FFTs selected (reduces bandwidth)
 parallel 3D FFT for charge:
    minimum data exchange during FFTs selected (reduces bandwidth)


 total amount of memory used by VASP MPI-rank0   153101. kBytes
=======================================================================

   base      :      30000. kBytes
   nonl-proj :       6491. kBytes
   fftplans  :      40084. kBytes
   grid      :      70225. kBytes
   one-center:          1. kBytes
   wavefun   :       6300. kBytes

     INWAV:  cpu time      0.0000: real time      0.0000
 Broyden mixing: mesh for mixing (old mesh)
   NGX =113   NGY =113   NGZ =113
  (NGX  =480   NGY  =480   NGZ  =480)
  gives a total of ****** points

 initial charge density was supplied:
 charge density of overlapping atoms calculated
 number of electron      56.0000000 magnetization 
 keeping initial charge density in first step


--------------------------------------------------------------------------------------------------------


 Maximum index for augmentation-charges          318 (set IRDMAX)


--------------------------------------------------------------------------------------------------------


 First call to EWALD:  gamma=   0.081
 Maximum number of real-space cells 3x 3x 3
 Maximum number of reciprocal cells 3x 3x 3

    FEWALD:  cpu time      0.0037: real time      0.0037


--------------------------------------- Ionic step        1  -------------------------------------------




--------------------------------------- Iteration      1(   1)  ---------------------------------------


    POTLOK:  cpu time      1.4021: real time      1.4030
    SETDIJ:  cpu time      0.0115: real time      0.0115
    TRIAL :  cpu time      2.3312: real time      2.3340
    CORREC:  cpu time      0.0013: real time      0.0013
    --------------------------------------------
      LOOP:  cpu time      3.7628: real time      3.7666

 eigenvalue-minimisations  :   104
 total energy-change (2. order) : 0.5536642E+03  (-0.1632495E+04)
 number of electron      56.0000000 magnetization 
 augmentation part       56.0000000 magnetization 

 Free energy of the ion-electron system (eV)
  ---------------------------------------------------
  alpha Z        PSCENC =         0.92446154
  Ewald energy   TEWEN  =      5822.64067415
  -Hartree energ DENC   =     -6863.70436586
  -exchange      EXHF   =         0.00000000
  -V(xc)+E(xc)   XCENC  =       111.32872405
  PAW double counting   =      1156.06481217    -1103.55985675
  entropy T*S    EENTRO =        -0.00000000
  eigenvalues    EBANDS =      -241.36385134
  atomic energy  EATOM  =      1671.33363589
  ---------------------------------------------------
  free energy    TOTEN  =       553.66423384 eV

  energy without entropy =      553.66423384  energy(sigma->0) =      553.66423384


--------------------------------------------------------------------------------------------------------




--------------------------------------- Iteration      1(   2)  ---------------------------------------


    TRIAL :  cpu time      2.9116: real time      2.9132
    CORREC:  cpu time      0.0001: real time      0.0001
    --------------------------------------------
      LOOP:  cpu time      2.9388: real time      2.9409

 eigenvalue-minimisations  :   144
 total energy-change (2. order) :-0.2914574E+03  (-0.2630243E+03)
 number of electron      56.0000000 magnetization 
 augmentation part       56.0000000 magnetization 

 Free energy of the ion-electron system (eV)
  ---------------------------------------------------
  alpha Z        PSCENC =         0.92446154
  Ewald energy   TEWEN  =      5822.64067415
  -Hartree energ DENC   =     -6863.70436586
  -exchange      EXHF   =         0.00000000
  -V(xc)+E(xc)   XCENC  =       111.32872405
  PAW double counting   =      1156.06481217    -1103.55985675
  entropy T*S    EENTRO =        -0.00000000
  eigenvalues    EBANDS =      -532.82128736
  atomic energy  EATOM  =      1671.33363589
  ---------------------------------------------------
  free energy    TOTEN  =       262.20679782 eV

  energy without entropy =      262.20679782  energy(sigma->0) =      262.20679782


--------------------------------------------------------------------------------------------------------




--------------------------------------- Iteration      1(   3)  ---------------------------------------


    TRIAL :  cpu time      2.8460: real time      2.8479
    CORREC:  cpu time      0.0001: real time      0.0001
    --------------------------------------------
      LOOP:  cpu time      2.8588: real time      2.8754

 eigenvalue-minimisations  :   140
 total energy-change (2. order) :-0.3366120E+03  (-0.3325547E+03)
 number of electron      56.0000000 magnetization 
 augmentation part       56.0000000 magnetization 

 Free energy of the ion-electron system (eV)
  ---------------------------------------------------
  alpha Z        PSCENC =         0.92446154
  Ewald energy   TEWEN  =      5822.64067415
  -Hartree energ DENC   =     -6863.70436586
  -exchange      EXHF   =         0.00000000
  -V(xc)+E(xc)   XCENC  =       111.32872405
  PAW double counting   =      1156.06481217    -1103.55985675
  entropy T*S    EENTRO =        -0.00000000
  eigenvalues    EBANDS =      -869.43330105
  atomic energy  EATOM  =      1671.33363589
  ---------------------------------------------------
  free energy    TOTEN  =       -74.40521587 eV

  energy without entropy =      -74.40521587  energy(sigma->0) =      -74.40521587


--------------------------------------------------------------------------------------------------------




--------------------------------------- Iteration      1(   4)  ---------------------------------------


    TRIAL :  cpu time      2.5443: real time      2.5461
    CORREC:  cpu time      0.0001: real time      0.0001
    --------------------------------------------
      LOOP:  cpu time      2.5724: real time      2.5744

 eigenvalue-minimisations  :   120
 total energy-change (2. order) :-0.8654310E+02  (-0.8633970E+02)
 number of electron      56.0000000 magnetization 
 augmentation part       56.0000000 magnetization 

 Free energy of the ion-electron system (eV)
  ---------------------------------------------------
  alpha Z        PSCENC =         0.92446154
  Ewald energy   TEWEN  =      5822.64067415
  -Hartree energ DENC   =     -6863.70436586
  -exchange      EXHF   =         0.00000000
  -V(xc)+E(xc)   XCENC  =       111.32872405
  PAW double counting   =      1156.06481217    -1103.55985675
  entropy T*S    EENTRO =        -0.00000000
  eigenvalues    EBANDS =      -955.97639698
  atomic energy  EATOM  =      1671.33363589
  ---------------------------------------------------
  free energy    TOTEN  =      -160.94831180 eV

  energy without entropy =     -160.94831180  energy(sigma->0) =     -160.94831180


--------------------------------------------------------------------------------------------------------




--------------------------------------- Iteration      1(   5)  ---------------------------------------


    TRIAL :  cpu time      2.4169: real time      2.4182
    CORREC:  cpu time      0.0001: real time      0.0001
    CHARGE:  cpu time      0.4165: real time      0.4175
    --------------------------------------------
      LOOP:  cpu time      2.8499: real time      2.8640

 eigenvalue-minimisations  :   112
 total energy-change (2. order) :-0.4401931E+01  (-0.4395653E+01)
 number of electron      56.0000000 magnetization 
 augmentation part        0.0323134 magnetization 

 Free energy of the ion-electron system (eV)
  ---------------------------------------------------
  alpha Z        PSCENC =         0.92446154
  Ewald energy   TEWEN  =      5822.64067415
  -Hartree energ DENC   =     -6863.70436586
  -exchange      EXHF   =         0.00000000
  -V(xc)+E(xc)   XCENC  =       111.32872405
  PAW double counting   =      1156.06481217    -1103.55985675
  entropy T*S    EENTRO =        -0.00000000
  eigenvalues    EBANDS =      -960.37832835
  atomic energy  EATOM  =      1671.33363589
  ---------------------------------------------------
  free energy    TOTEN  =      -165.35024317 eV

  energy without entropy =     -165.35024317  energy(sigma->0) =     -165.35024317


--------------------------------------------------------------------------------------------------------




--------------------------------------- Iteration      1(   6)  ---------------------------------------


    POTLOK:  cpu time      1.4206: real time      1.4212
    SETDIJ:  cpu time      0.0086: real time      0.0086
    TRIAL :  cpu time      1.3877: real time      1.3894
    CORREC:  cpu time      2.1634: real time      2.1645
    CHARGE:  cpu time      0.3719: real time      0.3719
    --------------------------------------------
      LOOP:  cpu time      5.3667: real time      5.3855

 eigenvalue-minimisations  :     0
 total energy-change (2. order) : 0.2807968E+02  (-0.1086177E+02)
 number of electron      56.0000000 magnetization 
 augmentation part        0.0194843 magnetization 

 Free energy of the ion-electron system (eV)
  ---------------------------------------------------
  alpha Z        PSCENC =         0.92446154
  Ewald energy   TEWEN  =      5822.64067415
  -Hartree energ DENC   =     -7485.54596497
  -exchange      EXHF   =         0.00000000
  -V(xc)+E(xc)   XCENC  =       132.00584283
  PAW double counting   =     14023.92418570   -13973.28914780
  entropy T*S    EENTRO =        -0.00000000
  eigenvalues    EBANDS =      -329.26424646
  atomic energy  EATOM  =      1671.33363589
  ---------------------------------------------------
  free energy    TOTEN  =      -137.27055912 eV

  energy without entropy =     -137.27055912  energy(sigma->0) =     -137.27055912


--------------------------------------------------------------------------------------------------------




--------------------------------------- Iteration      1(   7)  ---------------------------------------


    POTLOK:  cpu time      1.4314: real time      1.4323
    SETDIJ:  cpu time      0.0024: real time      0.0024
    TRIAL :  cpu time      1.3743: real time      1.3748
    CORREC:  cpu time      2.1572: real time      2.1584
    CHARGE:  cpu time      0.3716: real time      0.3716
    --------------------------------------------
      LOOP:  cpu time      5.3673: real time      5.3701

 eigenvalue-minimisations  :     0
 total energy-change (2. order) :-0.1098457E+02  (-0.1313010E+01)
 number of electron      56.0000000 magnetization 
 augmentation part        0.0060348 magnetization 

 Free energy of the ion-electron system (eV)
  ---------------------------------------------------
  alpha Z        PSCENC =         0.92446154
  Ewald energy   TEWEN  =      5822.64067415
  -Hartree energ DENC   =     -7199.17070150
  -exchange      EXHF   =         0.00000000
  -V(xc)+E(xc)   XCENC  =       124.75100572
  PAW double counting   =     16878.25214809   -16826.74193129
  entropy T*S    EENTRO =        -0.00000000
  eigenvalues    EBANDS =      -620.24442447
  atomic energy  EATOM  =      1671.33363589
  ---------------------------------------------------
  free energy    TOTEN  =      -148.25513189 eV

  energy without entropy =     -148.25513189  energy(sigma->0) =     -148.25513189


--------------------------------------------------------------------------------------------------------




--------------------------------------- Iteration      1(   8)  ---------------------------------------


    POTLOK:  cpu time      1.4265: real time      1.4276
    SETDIJ:  cpu time      0.0042: real time      0.0042
    TRIAL :  cpu time      1.3747: real time      1.3752
    CORREC:  cpu time      2.1563: real time      2.1580
    CHARGE:  cpu time      0.3711: real time      0.3714
    --------------------------------------------
      LOOP:  cpu time      5.3461: real time      5.3667

 eigenvalue-minimisations  :     0
 total energy-change (2. order) :-0.1317807E+01  (-0.5184285E+00)
 number of electron      56.0000000 magnetization 
 augmentation part        0.0055148 magnetization 

 Free energy of the ion-electron system (eV)
  ---------------------------------------------------
  alpha Z        PSCENC =         0.92446154
  Ewald energy   TEWEN  =      5822.64067415
  -Hartree energ DENC   =     -7206.91865269
  -exchange      EXHF   =         0.00000000
  -V(xc)+E(xc)   XCENC  =       124.69978500
  PAW double counting   =     18528.78271663   -18477.10407744
  entropy T*S    EENTRO =        -0.00000000
  eigenvalues    EBANDS =      -613.93148243
  atomic energy  EATOM  =      1671.33363589
  ---------------------------------------------------
  free energy    TOTEN  =      -149.57293936 eV

  energy without entropy =     -149.57293936  energy(sigma->0) =     -149.57293936


--------------------------------------------------------------------------------------------------------




--------------------------------------- Iteration      1(   9)  ---------------------------------------


    POTLOK:  cpu time      1.4277: real time      1.4280
    SETDIJ:  cpu time      0.0189: real time      0.0189
    TRIAL :  cpu time      1.3787: real time      1.3801
    CORREC:  cpu time      2.1665: real time      2.1676
    CHARGE:  cpu time      0.3712: real time      0.3712
    --------------------------------------------
      LOOP:  cpu time      5.3779: real time      5.3973

 eigenvalue-minimisations  :     0
 total energy-change (2. order) :-0.4980584E+00  (-0.1797994E+00)
 number of electron      56.0000000 magnetization 
 augmentation part        0.0059179 magnetization 

 Free energy of the ion-electron system (eV)
  ---------------------------------------------------
  alpha Z        PSCENC =         0.92446154
  Ewald energy   TEWEN  =      5822.64067415
  -Hartree energ DENC   =     -7176.55232463
  -exchange      EXHF   =         0.00000000
  -V(xc)+E(xc)   XCENC  =       124.04741389
  PAW double counting   =     18856.58542533   -18804.78472151
  entropy T*S    EENTRO =        -0.00000000
  eigenvalues    EBANDS =      -644.26556242
  atomic energy  EATOM  =      1671.33363589
  ---------------------------------------------------
  free energy    TOTEN  =      -150.07099777 eV

  energy without entropy =     -150.07099777  energy(sigma->0) =     -150.07099777


--------------------------------------------------------------------------------------------------------




--------------------------------------- Iteration      1(  10)  ---------------------------------------


    POTLOK:  cpu time      1.4199: real time      1.4210
    SETDIJ:  cpu time      0.0069: real time      0.0069
    TRIAL :  cpu time      1.3765: real time      1.3771
    CORREC:  cpu time      2.1517: real time      2.1531
    CHARGE:  cpu time      0.3719: real time      0.3727
    --------------------------------------------
      LOOP:  cpu time      5.3578: real time      5.3618

 eigenvalue-minimisations  :     0
 total energy-change (2. order) :-0.1778558E+00  (-0.4653796E-01)
 number of electron      56.0000000 magnetization 
 augmentation part        0.0062196 magnetization 

 Free energy of the ion-electron system (eV)
  ---------------------------------------------------
  alpha Z        PSCENC =         0.92446154
  Ewald energy   TEWEN  =      5822.64067415
  -Hartree energ DENC   =     -7178.99950986
  -exchange      EXHF   =         0.00000000
  -V(xc)+E(xc)   XCENC  =       124.23901488
  PAW double counting   =     18333.42058515   -18281.65933621
  entropy T*S    EENTRO =        -0.00000000
  eigenvalues    EBANDS =      -642.14837913
  atomic energy  EATOM  =      1671.33363589
  ---------------------------------------------------
  free energy    TOTEN  =      -150.24885361 eV

  energy without entropy =     -150.24885361  energy(sigma->0) =     -150.24885361


--------------------------------------------------------------------------------------------------------




--------------------------------------- Iteration      1(  11)  ---------------------------------------


    POTLOK:  cpu time      1.4219: real time      1.4227
    SETDIJ:  cpu time      0.0055: real time      0.0055
    TRIAL :  cpu time      1.3777: real time      1.3782
    CORREC:  cpu time      2.1461: real time      2.1482
    CHARGE:  cpu time      0.3719: real time      0.3719
    --------------------------------------------
      LOOP:  cpu time      5.3380: real time      5.3571

 eigenvalue-minimisations  :     0
 total energy-change (2. order) :-0.4638203E-01  (-0.1302469E-01)
 number of electron      56.0000000 magnetization 
 augmentation part        0.0063473 magnetization 

 Free energy of the ion-electron system (eV)
  ---------------------------------------------------
  alpha Z        PSCENC =         0.92446154
  Ewald energy   TEWEN  =      5822.64067415
  -Hartree energ DENC   =     -7178.04136968
  -exchange      EXHF   =         0.00000000
  -V(xc)+E(xc)   XCENC  =       124.21424662
  PAW double counting   =     17957.14059539   -17905.40936690
  entropy T*S    EENTRO =        -0.00000000
  eigenvalues    EBANDS =      -643.09811264
  atomic energy  EATOM  =      1671.33363589
  ---------------------------------------------------
  free energy    TOTEN  =      -150.29523564 eV

  energy without entropy =     -150.29523564  energy(sigma->0) =     -150.29523564


--------------------------------------------------------------------------------------------------------




--------------------------------------- Iteration      1(  12)  ---------------------------------------


    POTLOK:  cpu time      1.4265: real time      1.4268
    SETDIJ:  cpu time      0.0019: real time      0.0018
    TRIAL :  cpu time      1.3764: real time      1.3775
    CORREC:  cpu time      2.1445: real time      2.1460
    CHARGE:  cpu time      0.3710: real time      0.3711
    --------------------------------------------
      LOOP:  cpu time      5.3347: real time      5.3541

 eigenvalue-minimisations  :     0
 total energy-change (2. order) :-0.1302345E-01  (-0.4162775E-02)
 number of electron      56.0000000 magnetization 
 augmentation part        0.0064995 magnetization 

 Free energy of the ion-electron system (eV)
  ---------------------------------------------------
  alpha Z        PSCENC =         0.92446154
  Ewald energy   TEWEN  =      5822.64067415
  -Hartree energ DENC   =     -7175.68552189
  -exchange      EXHF   =         0.00000000
  -V(xc)+E(xc)   XCENC  =       124.11100253
  PAW double counting   =     17855.49268642   -17803.76866501
  entropy T*S    EENTRO =        -0.00000000
  eigenvalues    EBANDS =      -645.35653271
  atomic energy  EATOM  =      1671.33363589
  ---------------------------------------------------
  free energy    TOTEN  =      -150.30825909 eV

  energy without entropy =     -150.30825909  energy(sigma->0) =     -150.30825909


--------------------------------------------------------------------------------------------------------




--------------------------------------- Iteration      1(  13)  ---------------------------------------


    POTLOK:  cpu time      1.4156: real time      1.4168
    SETDIJ:  cpu time      0.0065: real time      0.0065
    TRIAL :  cpu time      1.3759: real time      1.3764
    CORREC:  cpu time      2.1306: real time      2.1322
    CHARGE:  cpu time      0.3708: real time      0.3713
    --------------------------------------------
      LOOP:  cpu time      5.3143: real time      5.3339

 eigenvalue-minimisations  :     0
 total energy-change (2. order) :-0.4166397E-02  (-0.1460730E-02)
 number of electron      56.0000000 magnetization 
 augmentation part        0.0065711 magnetization 

 Free energy of the ion-electron system (eV)
  ---------------------------------------------------
  alpha Z        PSCENC =         0.92446154
  Ewald energy   TEWEN  =      5822.64067415
  -Hartree energ DENC   =     -7178.04471307
  -exchange      EXHF   =         0.00000000
  -V(xc)+E(xc)   XCENC  =       124.13901201
  PAW double counting   =     17877.55761691   -17825.84103888
  entropy T*S    EENTRO =        -0.00000000
  eigenvalues    EBANDS =      -643.02207403
  atomic energy  EATOM  =      1671.33363589
  ---------------------------------------------------
  free energy    TOTEN  =      -150.31242548 eV

  energy without entropy =     -150.31242548  energy(sigma->0) =     -150.31242548


--------------------------------------------------------------------------------------------------------




--------------------------------------- Iteration      1(  14)  ---------------------------------------


    POTLOK:  cpu time      1.4057: real time      1.4063
    SETDIJ:  cpu time      0.0020: real time      0.0020
    TRIAL :  cpu time      1.3771: real time      1.3778
    CORREC:  cpu time      2.1130: real time      2.1153
    CHARGE:  cpu time      0.3714: real time      0.3714
    --------------------------------------------
      LOOP:  cpu time      5.2829: real time      5.3034

 eigenvalue-minimisations  :     0
 total energy-change (2. order) :-0.1461531E-02  (-0.5252214E-03)
 number of electron      56.0000000 magnetization 
 augmentation part        0.0068138 magnetization 

 Free energy of the ion-electron system (eV)
  ---------------------------------------------------
  alpha Z        PSCENC =         0.92446154
  Ewald energy   TEWEN  =      5822.64067415
  -Hartree energ DENC   =     -7177.54101007
  -exchange      EXHF   =         0.00000000
  -V(xc)+E(xc)   XCENC  =       124.12328319
  PAW double counting   =     17915.20553279   -17863.48801994
  entropy T*S    EENTRO =        -0.00000000
  eigenvalues    EBANDS =      -643.51244456
  atomic energy  EATOM  =      1671.33363589
  ---------------------------------------------------
  free energy    TOTEN  =      -150.31388702 eV

  energy without entropy =     -150.31388702  energy(sigma->0) =     -150.31388702


--------------------------------------------------------------------------------------------------------




--------------------------------------- Iteration      1(  15)  ---------------------------------------


    POTLOK:  cpu time      1.4014: real time      1.4017
    SETDIJ:  cpu time      0.0023: real time      0.0023
    TRIAL :  cpu time      1.3759: real time      1.3775
    CORREC:  cpu time      2.1062: real time      2.1075
    CHARGE:  cpu time      0.3720: real time      0.3720
    --------------------------------------------
      LOOP:  cpu time      5.2884: real time      5.2920

 eigenvalue-minimisations  :     0
 total energy-change (2. order) :-0.5257879E-03  (-0.1808411E-03)
 number of electron      56.0000000 magnetization 
 augmentation part        0.0070055 magnetization 

 Free energy of the ion-electron system (eV)
  ---------------------------------------------------
  alpha Z        PSCENC =         0.92446154
  Ewald energy   TEWEN  =      5822.64067415
  -Hartree energ DENC   =     -7177.95979509
  -exchange      EXHF   =         0.00000000
  -V(xc)+E(xc)   XCENC  =       124.13454789
  PAW double counting   =     17930.54160316   -17878.82417223
  entropy T*S    EENTRO =        -0.00000000
  eigenvalues    EBANDS =      -643.10536811
  atomic energy  EATOM  =      1671.33363589
  ---------------------------------------------------
  free energy    TOTEN  =      -150.31441280 eV

  energy without entropy =     -150.31441280  energy(sigma->0) =     -150.31441280


--------------------------------------------------------------------------------------------------------




--------------------------------------- Iteration      1(  16)  ---------------------------------------


    POTLOK:  cpu time      1.3778: real time      1.3789
    SETDIJ:  cpu time      0.0023: real time      0.0023
    TRIAL :  cpu time      1.3778: real time      1.3784
    CORREC:  cpu time      2.0993: real time      2.1007
    CHARGE:  cpu time      0.3715: real time      0.3715
    --------------------------------------------
      LOOP:  cpu time      5.2448: real time      5.2621

 eigenvalue-minimisations  :     0
 total energy-change (2. order) :-0.1815651E-03  (-0.5307149E-04)
 number of electron      56.0000000 magnetization 
 augmentation part        0.0070610 magnetization 

 Free energy of the ion-electron system (eV)
  ---------------------------------------------------
  alpha Z        PSCENC =         0.92446154
  Ewald energy   TEWEN  =      5822.64067415
  -Hartree energ DENC   =     -7178.15302420
  -exchange      EXHF   =         0.00000000
  -V(xc)+E(xc)   XCENC  =       124.14078913
  PAW double counting   =     17930.75548922   -17879.03772130
  entropy T*S    EENTRO =        -0.00000000
  eigenvalues    EBANDS =      -642.91889878
  atomic energy  EATOM  =      1671.33363589
  ---------------------------------------------------
  free energy    TOTEN  =      -150.31459437 eV

  energy without entropy =     -150.31459437  energy(sigma->0) =     -150.31459437


--------------------------------------------------------------------------------------------------------




--------------------------------------- Iteration      1(  17)  ---------------------------------------


    POTLOK:  cpu time      1.3733: real time      1.3739
    SETDIJ:  cpu time      0.0039: real time      0.0039
    TRIAL :  cpu time      1.3776: real time      1.3781
    CORREC:  cpu time      2.0984: real time      2.1002
    CHARGE:  cpu time      0.3709: real time      0.3715
    --------------------------------------------
      LOOP:  cpu time      5.2411: real time      5.2582

 eigenvalue-minimisations  :     0
 total energy-change (2. order) :-0.5336473E-04  (-0.1513347E-04)
 number of electron      56.0000000 magnetization 
 augmentation part        0.0070644 magnetization 

 Free energy of the ion-electron system (eV)
  ---------------------------------------------------
  alpha Z        PSCENC =         0.92446154
  Ewald energy   TEWEN  =      5822.64067415
  -Hartree energ DENC   =     -7178.05487961
  -exchange      EXHF   =         0.00000000
  -V(xc)+E(xc)   XCENC  =       124.13989241
  PAW double counting   =     17929.44331500   -17877.72495355
  entropy T*S    EENTRO =        -0.00000000
  eigenvalues    EBANDS =      -643.01679356
  atomic energy  EATOM  =      1671.33363589
  ---------------------------------------------------
  free energy    TOTEN  =      -150.31464773 eV

  energy without entropy =     -150.31464773  energy(sigma->0) =     -150.31464773


--------------------------------------------------------------------------------------------------------




--------------------------------------- Iteration      1(  18)  ---------------------------------------


    POTLOK:  cpu time      1.3728: real time      1.3736
    SETDIJ:  cpu time      0.0018: real time      0.0018
    TRIAL :  cpu time      1.3795: real time      1.3808
    CORREC:  cpu time      2.0982: real time      2.0993
    CHARGE:  cpu time      0.3718: real time      0.3718
    --------------------------------------------
      LOOP:  cpu time      5.2540: real time      5.2574

 eigenvalue-minimisations  :     0
 total energy-change (2. order) :-0.1504051E-04  (-0.4366078E-05)
 number of electron      56.0000000 magnetization 
 augmentation part        0.0070396 magnetization 

 Free energy of the ion-electron system (eV)
  ---------------------------------------------------
  alpha Z        PSCENC =         0.92446154
  Ewald energy   TEWEN  =      5822.64067415
  -Hartree energ DENC   =     -7178.17381269
  -exchange      EXHF   =         0.00000000
  -V(xc)+E(xc)   XCENC  =       124.14326441
  PAW double counting   =     17929.34691554   -17877.62859287
  entropy T*S    EENTRO =        -0.00000000
  eigenvalues    EBANDS =      -642.90120873
  atomic energy  EATOM  =      1671.33363589
  ---------------------------------------------------
  free energy    TOTEN  =      -150.31466277 eV

  energy without entropy =     -150.31466277  energy(sigma->0) =     -150.31466277


--------------------------------------------------------------------------------------------------------




--------------------------------------- Iteration      1(  19)  ---------------------------------------


    POTLOK:  cpu time      1.3644: real time      1.3651
    SETDIJ:  cpu time      0.0194: real time      0.0194
    TRIAL :  cpu time      1.3808: real time      1.3820
    CORREC:  cpu time      2.1010: real time      2.1024
    CHARGE:  cpu time      0.3719: real time      0.3720
    --------------------------------------------
      LOOP:  cpu time      5.2560: real time      5.2730

 eigenvalue-minimisations  :     0
 total energy-change (2. order) :-0.4351454E-05  (-0.1721096E-05)
 number of electron      56.0000000 magnetization 
 augmentation part        0.0070237 magnetization 

 Free energy of the ion-electron system (eV)
  ---------------------------------------------------
  alpha Z        PSCENC =         0.92446154
  Ewald energy   TEWEN  =      5822.64067415
  -Hartree energ DENC   =     -7178.09162048
  -exchange      EXHF   =         0.00000000
  -V(xc)+E(xc)   XCENC  =       124.14160354
  PAW double counting   =     17928.74840238   -17877.02987913
  entropy T*S    EENTRO =        -0.00000000
  eigenvalues    EBANDS =      -642.98194501
  atomic energy  EATOM  =      1671.33363589
  ---------------------------------------------------
  free energy    TOTEN  =      -150.31466712 eV

  energy without entropy =     -150.31466712  energy(sigma->0) =     -150.31466712


--------------------------------------------------------------------------------------------------------




--------------------------------------- Iteration      1(  20)  ---------------------------------------


    POTLOK:  cpu time      1.3696: real time      1.3705
    SETDIJ:  cpu time      0.0025: real time      0.0025
    TRIAL :  cpu time      1.3820: real time      1.3826
    CORREC:  cpu time      2.1004: real time      2.1022
    CHARGE:  cpu time      0.3704: real time      0.3710
    --------------------------------------------
      LOOP:  cpu time      5.2447: real time      5.2593

 eigenvalue-minimisations  :     0
 total energy-change (2. order) :-0.1570193E-05  (-0.5540958E-06)
 number of electron      56.0000000 magnetization 
 augmentation part        0.0070135 magnetization 

 Free energy of the ion-electron system (eV)
  ---------------------------------------------------
  alpha Z        PSCENC =         0.92446154
  Ewald energy   TEWEN  =      5822.64067415
  -Hartree energ DENC   =     -7178.12014324
  -exchange      EXHF   =         0.00000000
  -V(xc)+E(xc)   XCENC  =       124.14233290
  PAW double counting   =     17927.20207257   -17875.48363288
  entropy T*S    EENTRO =        -0.00000000
  eigenvalues    EBANDS =      -642.95406961
  atomic energy  EATOM  =      1671.33363589
  ---------------------------------------------------
  free energy    TOTEN  =      -150.31466869 eV

  energy without entropy =     -150.31466869  energy(sigma->0) =     -150.31466869


--------------------------------------------------------------------------------------------------------




--------------------------------------- Iteration      1(  21)  ---------------------------------------


    POTLOK:  cpu time      1.3684: real time      1.3691
    SETDIJ:  cpu time      0.0057: real time      0.0057
    TRIAL :  cpu time      1.3765: real time      1.3770
    CORREC:  cpu time      2.0999: real time      2.1017
    CHARGE:  cpu time      0.3718: real time      0.3723
    --------------------------------------------
      LOOP:  cpu time      5.2393: real time      5.2558

 eigenvalue-minimisations  :     0
 total energy-change (2. order) :-0.5285074E-06  (-0.2433654E-06)
 number of electron      56.0000000 magnetization 
 augmentation part        0.0070132 magnetization 

 Free energy of the ion-electron system (eV)
  ---------------------------------------------------
  alpha Z        PSCENC =         0.92446154
  Ewald energy   TEWEN  =      5822.64067415
  -Hartree energ DENC   =     -7178.09481064
  -exchange      EXHF   =         0.00000000
  -V(xc)+E(xc)   XCENC  =       124.14172089
  PAW double counting   =     17925.68206151   -17873.96361927
  entropy T*S    EENTRO =        -0.00000000
  eigenvalues    EBANDS =      -642.97879329
  atomic energy  EATOM  =      1671.33363589
  ---------------------------------------------------
  free energy    TOTEN  =      -150.31466922 eV

  energy without entropy =     -150.31466922  energy(sigma->0) =     -150.31466922


--------------------------------------------------------------------------------------------------------




--------------------------------------- Iteration      1(  22)  ---------------------------------------


    POTLOK:  cpu time      1.3725: real time      1.3730
    SETDIJ:  cpu time      0.0037: real time      0.0037
    TRIAL :  cpu time      1.3774: real time      1.3784
    CORREC:  cpu time      2.0983: real time      2.0993
    CHARGE:  cpu time      0.3717: real time      0.3718
    --------------------------------------------
      LOOP:  cpu time      5.2506: real time      5.2561

 eigenvalue-minimisations  :     0
 total energy-change (2. order) :-0.2183133E-06  (-0.5516734E-07)
 number of electron      56.0000000 magnetization 
 augmentation part        0.0070137 magnetization 

 Free energy of the ion-electron system (eV)
  ---------------------------------------------------
  alpha Z        PSCENC =         0.92446154
  Ewald energy   TEWEN  =      5822.64067415
  -Hartree energ DENC   =     -7178.10426211
  -exchange      EXHF   =         0.00000000
  -V(xc)+E(xc)   XCENC  =       124.14183453
  PAW double counting   =     17924.94934906   -17873.23094997
  entropy T*S    EENTRO =        -0.00000000
  eigenvalues    EBANDS =      -642.96941252
  atomic energy  EATOM  =      1671.33363589
  ---------------------------------------------------
  free energy    TOTEN  =      -150.31466944 eV

  energy without entropy =     -150.31466944  energy(sigma->0) =     -150.31466944


--------------------------------------------------------------------------------------------------------




--------------------------------------- Iteration      1(  23)  ---------------------------------------


    POTLOK:  cpu time      1.3732: real time      1.3737
    SETDIJ:  cpu time      0.0026: real time      0.0026
    TRIAL :  cpu time      1.3777: real time      1.3786
    CORREC:  cpu time      2.1004: real time      2.1016
    EDDIAG:  cpu time      0.5736: real time      0.5742
    CHARGE:  cpu time      0.3712: real time      0.3713
    --------------------------------------------
      LOOP:  cpu time      5.8138: real time      5.8332

 eigenvalue-minimisations  :     0
 total energy-change (2. order) :-0.5203037E-07  (-0.2262870E-07)
 number of electron      56.0000000 magnetization 
 augmentation part        0.0070146 magnetization 

 Free energy of the ion-electron system (eV)
  ---------------------------------------------------
  alpha Z        PSCENC =         0.92446154
  Ewald energy   TEWEN  =      5822.64067415
  -Hartree energ DENC   =     -7178.09965322
  -exchange      EXHF   =         0.00000000
  -V(xc)+E(xc)   XCENC  =       124.14168428
  PAW double counting   =     17925.02636686   -17873.30796085
  entropy T*S    EENTRO =        -0.00000000
  eigenvalues    EBANDS =      -642.97387813
  atomic energy  EATOM  =      1671.33363589
  ---------------------------------------------------
  free energy    TOTEN  =      -150.31466949 eV

  energy without entropy =     -150.31466949  energy(sigma->0) =     -150.31466949


--------------------------------------------------------------------------------------------------------


  average scaling for gradient   1.0687


 average (electrostatic) potential at core
  the test charge radii are     0.5770  0.4325
  (the norm of the test charge is              1.0000)
       1 -85.4479       2 -85.4479       3 -85.6426       4 -85.6429       5 -85.6428
       6 -85.6429       7 -85.4472       8 -85.4472       9 -85.4473      10 -85.4471
      11 -44.1875      12 -44.1880      13 -44.1872      14 -44.1875      15 -44.1467
      16 -44.1464      17 -44.1465      18 -44.1466      19 -44.1882      20 -44.1879
      21 -44.1878      22 -44.1878      23 -44.1875      24 -44.1877      25 -44.1876
      26 -44.1874



 E-fermi :  -6.3460     XC(G=0):  -0.2536     alpha+bet : -0.1396

 Fermi energy:        -6.3460066699

 k-point     1 :       0.0000    0.0000    0.0000
  band No.  band energies     occupation 
      1     -21.4040      2.00000
      2     -18.7518      2.00000
      3     -18.7517      2.00000
      4     -18.7516      2.00000
      5     -16.1224      2.00000
      6     -16.1217      2.00000
      7     -14.0301      2.00000
      8     -14.0295      2.00000
      9     -14.0295      2.00000
     10     -12.6130      2.00000
     11     -10.8435      2.00000
     12     -10.7519      2.00000
     13     -10.7509      2.00000
     14     -10.7506      2.00000
     15      -9.6430      2.00000
     16      -9.6426      2.00000
     17      -9.6424      2.00000
     18      -9.2138      2.00000
     19      -9.2137      2.00000
     20      -9.2136      2.00000
     21      -7.6575      2.00000
     22      -7.6551      2.00000
     23      -7.5486      2.00000
     24      -7.5483      2.00000
     25      -7.5479      2.00000
     26      -6.4199      2.00000
     27      -6.4193      2.00000
     28      -6.4191      2.00000
     29      -0.6570      0.00000
     30      -0.0287      0.00000
     31      -0.0285      0.00000
     32      -0.0285      0.00000
     33       0.1453      0.00000
     34       0.2989      0.00000
     35       0.3277      0.00000
     36       0.4024      0.00000
     37       0.4024      0.00000
     38       0.4764      0.00000
     39       0.4845      0.00000
     40       0.4847      0.00000
     41       0.4887      0.00000
     42       0.5648      0.00000
     43       0.6159      0.00000
     44       0.6340      0.00000


--------------------------------------------------------------------------------------------------------


 soft charge-density along one line, spin component           1
         0         1         2         3         4         5         6         7         8         9
 total charge-density along one line

 pseudopotential strength for first ion, spin component:           1
 12.691  21.356  -0.000   0.000   0.000  -0.000   0.001   0.000
 21.356  35.936  -0.000   0.001   0.000  -0.000   0.001   0.000
 -0.000  -0.000  -3.169   0.000   0.000  -5.680   0.000   0.000
  0.000   0.001   0.000  -3.170   0.000   0.000  -5.681   0.000
  0.000   0.000   0.000   0.000  -3.169   0.000   0.000  -5.681
 -0.000  -0.000  -5.680   0.000   0.000 -10.158   0.000   0.000
  0.001   0.001   0.000  -5.681   0.000   0.000 -10.160   0.000
  0.000   0.000   0.000   0.000  -5.681   0.000   0.000 -10.159
 total augmentation occupancy for first ion, spin component:           1
  7.303  -2.501   0.000  -0.064  -0.000  -0.000  -0.002   0.000
 -2.501   0.884   0.000  -0.002   0.000  -0.000   0.021  -0.000
  0.000   0.000   5.503   0.000  -0.017  -1.755  -0.000   0.002
 -0.064  -0.002   0.000   5.659   0.000  -0.000  -1.810  -0.000
 -0.000   0.000  -0.017   0.000   5.643   0.002  -0.000  -1.773
 -0.000  -0.000  -1.755  -0.000   0.002   0.573   0.000   0.002
 -0.002   0.021  -0.000  -1.810  -0.000   0.000   0.587   0.000
  0.000  -0.000   0.002  -0.000  -1.773   0.002   0.000   0.561


------------------------ aborting loop because EDIFF is reached ----------------------------------------


    FORLOC:  cpu time      0.1368: real time      0.1368
    FORNL :  cpu time      0.1651: real time      0.1653
    FORCOR:  cpu time      1.2457: real time      1.2463
    OFIELD:  cpu time      0.0094: real time      0.0100

 VOLUME and BASIS-vectors are now :
 -----------------------------------------------------------------------------
  energy-cutoff  :     1000.00
  volume of cell :    10648.00
      direct lattice vectors                 reciprocal lattice vectors
    22.000000000  0.000000000  0.000000000     0.045454545  0.000000000  0.000000000
     0.000000000 22.000000000  0.000000000     0.000000000  0.045454545  0.000000000
     0.000000000  0.000000000 22.000000000     0.000000000  0.000000000  0.045454545

  length of vectors
    22.000000000 22.000000000 22.000000000     0.045454545  0.045454545  0.045454545


 FORCES acting on ions:
    Electron-Ion                     Ewald-Force                    Non-Local-Force
 -----------------------------------------------------------------------------------------------
   -.514E-01 -.697E-02 0.263E+03   0.513E-01 0.727E-02 -.263E+03   0.282E-03 -.115E-02 0.411E+00
   0.307E-01 -.614E-03 -.263E+03   -.311E-01 0.413E-03 0.263E+03   0.127E-02 0.114E-02 -.414E+00
   -.257E+02 -.195E+03 0.139E+03   0.258E+02 0.196E+03 -.140E+03   -.126E+00 -.963E+00 0.687E+00
   0.195E+03 -.257E+02 -.139E+03   -.196E+03 0.258E+02 0.140E+03   0.963E+00 -.128E+00 -.687E+00
   0.257E+02 0.195E+03 0.139E+03   -.258E+02 -.196E+03 -.140E+03   0.126E+00 0.962E+00 0.687E+00
   -.195E+03 0.257E+02 -.139E+03   0.196E+03 -.258E+02 0.140E+03   -.962E+00 0.128E+00 -.689E+00
   0.160E+03 -.209E+03 -.122E+00   -.160E+03 0.209E+03 0.124E+00   0.254E+00 -.323E+00 -.319E-02
   0.209E+03 0.160E+03 0.163E+00   -.209E+03 -.160E+03 -.165E+00   0.322E+00 0.253E+00 0.550E-02
   -.160E+03 0.209E+03 -.144E+00   0.160E+03 -.209E+03 0.146E+00   -.252E+00 0.323E+00 -.390E-02
   -.209E+03 -.160E+03 0.870E-01   0.209E+03 0.160E+03 -.892E-01   -.323E+00 -.251E+00 0.248E-02
   0.554E+02 -.732E+01 0.834E+02   -.597E+02 0.789E+01 -.867E+02   0.430E+01 -.566E+00 0.327E+01
   0.733E+01 0.554E+02 -.834E+02   -.790E+01 -.597E+02 0.867E+02   0.567E+00 0.430E+01 -.327E+01
   -.554E+02 0.732E+01 0.834E+02   0.597E+02 -.789E+01 -.867E+02   -.430E+01 0.567E+00 0.326E+01
   -.732E+01 -.554E+02 -.834E+02   0.789E+01 0.597E+02 0.867E+02   -.568E+00 -.430E+01 -.327E+01
   -.112E+02 -.843E+02 0.601E+02   0.117E+02 0.888E+02 -.633E+02   -.585E+00 -.443E+01 0.316E+01
   0.843E+02 -.111E+02 -.601E+02   -.888E+02 0.117E+02 0.633E+02   0.443E+01 -.585E+00 -.316E+01
   0.112E+02 0.843E+02 0.602E+02   -.117E+02 -.888E+02 -.633E+02   0.586E+00 0.443E+01 0.316E+01
   -.843E+02 0.112E+02 -.601E+02   0.888E+02 -.117E+02 0.633E+02   -.443E+01 0.585E+00 -.316E+01
   0.821E+02 -.424E+02 0.394E+02   -.866E+02 0.431E+02 -.425E+02   0.443E+01 -.739E+00 0.306E+01
   0.424E+02 0.821E+02 -.394E+02   -.431E+02 -.866E+02 0.425E+02   0.740E+00 0.443E+01 -.306E+01
   -.821E+02 0.424E+02 0.394E+02   0.866E+02 -.431E+02 -.425E+02   -.443E+01 0.740E+00 0.306E+01
   -.424E+02 -.821E+02 -.394E+02   0.431E+02 0.866E+02 0.425E+02   -.739E+00 -.443E+01 -.306E+01
   0.193E+02 -.902E+02 -.396E+02   -.188E+02 0.947E+02 0.427E+02   -.461E+00 -.445E+01 -.307E+01
   0.902E+02 0.192E+02 0.396E+02   -.947E+02 -.188E+02 -.427E+02   0.445E+01 -.462E+00 0.308E+01
   -.192E+02 0.902E+02 -.396E+02   0.188E+02 -.947E+02 0.427E+02   0.461E+00 0.445E+01 -.307E+01
   -.902E+02 -.193E+02 0.396E+02   0.947E+02 0.188E+02 -.427E+02   -.445E+01 0.460E+00 0.308E+01
 -----------------------------------------------------------------------------------------------
   -.388E-02 -.132E-02 0.339E-03   0.242E-12 0.782E-13 0.171E-12   0.388E-02 0.133E-02 -.338E-03


 POSITION                                       TOTAL-FORCE (eV/Angst)
 -----------------------------------------------------------------------------------
     11.00033     11.00006      9.22329         0.000212     -0.000828      0.051465
     10.99981     10.99999     12.77707         0.000861      0.000881     -0.053748
     11.16530     12.24794     10.10991        -0.002415     -0.024983      0.018349
      9.75197     11.16532     11.89040         0.024208     -0.003470     -0.018365
     10.83484      9.75212     10.10977         0.002492      0.024002      0.017229
     12.24780     10.83463     11.89061        -0.023394      0.003441     -0.018942
      9.92053     12.41087     11.00134         0.031887     -0.040581     -0.000787
      9.58918      9.92069     10.99865         0.039748      0.031235      0.003156
     12.07938      9.58908     11.00150        -0.030400      0.040151     -0.001759
     12.41075     12.07938     10.99913        -0.039848     -0.029403      0.000087
     10.12250     11.11569      8.56868        -0.028054      0.004764     -0.033513
     10.88401     10.12194     13.43126        -0.004848     -0.028794      0.035172
     11.87861     10.88437      8.56922         0.026940     -0.004284     -0.032809
     11.11564     11.87808     13.43132         0.003996      0.027193      0.033791
     11.28308     13.13899      9.47466         0.005533      0.032141     -0.022933
      8.86077     11.28300     12.52556        -0.030358      0.004924      0.022289
     10.71699      8.86110      9.47442        -0.004515     -0.031121     -0.022425
     13.13892     10.71682     12.52582         0.030563     -0.004757      0.023283
      9.02510     12.55174     10.37645        -0.039553      0.015103     -0.023437
      9.44800      9.02511     11.62331        -0.014369     -0.038685      0.023372
     12.97502      9.44796     10.37686         0.037925     -0.013791     -0.022854
     12.55165     12.97493     11.62391         0.014385      0.038219      0.023663
     10.02212     13.31003     11.62874        -0.005870      0.040897      0.018785
      8.69013     10.02241     10.37117        -0.041465     -0.005364     -0.019807
     11.97774      8.68997     11.62893         0.004778     -0.041356      0.019265
     13.30987     11.97806     10.37165         0.041561      0.004466     -0.018526
 -----------------------------------------------------------------------------------
    total drift:                               -0.000002      0.000004      0.000001


--------------------------------------------------------------------------------------------------------



  FREE ENERGIE OF THE ION-ELECTRON SYSTEM (eV)
  ---------------------------------------------------
  free  energy   TOTEN  =      -150.31466949 eV

  energy  without entropy=     -150.31466949  energy(sigma->0) =     -150.31466949



--------------------------------------------------------------------------------------------------------


    POTLOK:  cpu time      1.3816: real time      1.3824


--------------------------------------------------------------------------------------------------------


 stress matrix after NEB project (eV)
      0.00000      0.00000      0.00000
      0.00000      0.00000      0.00000
      0.00000      0.00000      0.00000
  FORCES: max atom, RMS     0.053762    0.044110
  FORCE total and by dimension    0.224918    0.053748
  Stress total and by dimension    0.000000    0.000000
     LOOP+:  cpu time    113.8737: real time    114.2523
    4ORBIT:  cpu time      0.0000: real time      0.0000

 total amount of memory used by VASP MPI-rank0   153101. kBytes
=======================================================================

   base      :      30000. kBytes
   nonl-proj :       6491. kBytes
   fftplans  :      40084. kBytes
   grid      :      70225. kBytes
   one-center:          1. kBytes
   wavefun   :       6300. kBytes

  
  
 General timing and accounting informations for this job:
 ========================================================
  
                  Total CPU time used (sec):      137.297
                            User time (sec):      134.714
                          System time (sec):        2.583
                         Elapsed time (sec):      141.047
  
                   Maximum memory used (kb):      374124.
                   Average memory used (kb):          N/A
  
                          Minor page faults:       141894
                          Major page faults:         1153
                 Voluntary context switches:         3442
