 vasp.6.4.1 05Apr23 (build Jun  6 2023 14:46:38) gamma-only                      
 executed on        HPECrayEX_GCC date 2024.08.20  22:59:48
 running  256 mpi-ranks, with    1 threads/rank, on    2 nodes
 distrk:  each k-point on  128 cores,    2 groups
 distr:  one band on NCORE=  32 cores,    4 groups


--------------------------------------------------------------------------------------------------------


 INCAR:
   ALGO = Conjugate
   KPAR = 2
   NCORE = 32
   ISMEAR = 0
   SIGMA = 0.01
   PREC = Accurate
   EDIFF = 1E-7
   ENCUT = 1000
   ISIF = 0
   METAGGA = SCAN
   LASPH = .TRUE.
   SYMPREC = 1E-7
   LWAVE = .FALSE.
   LCHARG = .FALSE.

 POTCAR:    PAW_PBE C_h 06Feb2004                 
 POTCAR:    PAW_PBE H_h 06Feb2004                 
 POTCAR:    PAW_PBE C_h 06Feb2004                 
   VRHFIN =C: s2p2                                                                                  
   LEXCH  = PE                                                                                      
   EATOM  =   147.1560 eV,   10.8157 Ry                                                             
                                                                                                    
   TITEL  = PAW_PBE C_h 06Feb2004                                                                   
   LULTRA =        F    use ultrasoft PP ?                                                          
   IUNSCR =        1    unscreen: 0-lin 1-nonlin 2-no                                               
   RPACOR =    0.800    partial core radius                                                         
   POMASS =   12.011; ZVAL   =    4.000    mass and valenz                                          
   RCORE  =    1.100    outmost cutoff radius                                                       
   RWIGS  =    1.630; RWIGS  =    0.863    wigner-seitz radius (au A)                               
   ENMAX  =  700.000; ENMIN  =  500.000 eV                                                          
   ICORE  =        2    local potential                                                             
   LCOR   =        T    correct aug charges                                                         
   LPAW   =        T    paw PP                                                                      
   EAUG   =  946.768                                                                                
   DEXC   =    0.000                                                                                
   RMAX   =    1.128    core radius for proj-oper                                                   
   RAUG   =    1.300    factor for augmentation sphere                                              
   RDEP   =    1.162    radius for radial grids                                                     
   RDEPT  =    1.088    core radius for aug-charge                                                  
                                                                                                    
   Atomic configuration                                                                             
    4 entries                                                                                       
     n  l   j            E        occ.                                                              
     1  0  0.50      -273.3789   2.0000                                                             
     2  0  0.50       -13.7508   2.0000                                                             
     2  1  0.50        -5.2854   2.0000                                                             
     3  2  1.50        -5.4423   0.0000                                                             
   Description                                                                                      
     l       E           TYP  RCUT    TYP  RCUT                                                     
     0    -13.7508458     23  1.100                                                                 
     0     -8.2022199     23  1.100                                                                 
     1     -5.2854383     23  1.100                                                                 
     1      1.1560700     23  1.100                                                                 
     2     -5.4423304      7  1.100                                                                 
  local pseudopotential read in
  partial core-charges read in
  partial kinetic energy density read in
  atomic valenz-charges read in
  non local Contribution for L=           0  read in
    real space projection operators read in
  non local Contribution for L=           0  read in
    real space projection operators read in
  non local Contribution for L=           1  read in
    real space projection operators read in
  non local Contribution for L=           1  read in
    real space projection operators read in
    PAW grid and wavefunctions read in

   number of l-projection  operators is LMAX  =           4
   number of lm-projection operators is LMMAX =           8

 POTCAR:    PAW_PBE H_h 06Feb2004                 
   VRHFIN =H: ultrasoft test                                                                        
   LEXCH  = PE                                                                                      
   EATOM  =    12.4884 eV,    0.9179 Ry                                                             
                                                                                                    
   TITEL  = PAW_PBE H_h 06Feb2004                                                                   
   LULTRA =        F    use ultrasoft PP ?                                                          
   IUNSCR =        0    unscreen: 0-lin 1-nonlin 2-no                                               
   RPACOR =    0.000    partial core radius                                                         
   POMASS =    1.000; ZVAL   =    1.000    mass and valenz                                          
   RCORE  =    0.800    outmost cutoff radius                                                       
   RWIGS  =    0.700; RWIGS  =    0.370    wigner-seitz radius (au A)                               
   ENMAX  =  700.000; ENMIN  =  350.000 eV                                                          
   RCLOC  =    0.701    cutoff for local pot                                                        
   LCOR   =        T    correct aug charges                                                         
   LPAW   =        T    paw PP                                                                      
   EAUG   = 1000.000                                                                                
   RMAX   =    0.819    core radius for proj-oper                                                   
   RAUG   =    1.000    factor for augmentation sphere                                              
   RDEP   =    0.817    radius for radial grids                                                     
   RDEPT  =    0.817    core radius for aug-charge                                                  
                                                                                                    
   Atomic configuration                                                                             
    2 entries                                                                                       
     n  l   j            E        occ.                                                              
     1  0  0.50        -6.4927   1.0000                                                             
     2  1  0.50        -3.4015   0.0000                                                             
   Description                                                                                      
     l       E           TYP  RCUT    TYP  RCUT                                                     
     0     -6.4927493     23  0.800                                                                 
     0      6.8029130     23  0.800                                                                 
     1     -6.8029130     23  0.800                                                                 
  local pseudopotential read in
  atomic valenz-charges read in
  non local Contribution for L=           0  read in
    real space projection operators read in
  non local Contribution for L=           0  read in
    real space projection operators read in
  non local Contribution for L=           1  read in
    real space projection operators read in
    PAW grid and wavefunctions read in

   number of l-projection  operators is LMAX  =           3
   number of lm-projection operators is LMMAX =           5

 -----------------------------------------------------------------------------
|                                                                             |
|               ----> ADVICE to this user running VASP <----                  |
|                                                                             |
|     You have a (more or less) 'large supercell' and for larger cells it     |
|     might be more efficient to use real-space projection operators.         |
|     Therefore, try LREAL= Auto in the INCAR file.                           |
|     Mind: For very accurate calculation, you might also keep the            |
|     reciprocal projection scheme (i.e. LREAL=.FALSE.).                      |
|                                                                             |
 -----------------------------------------------------------------------------

  PAW_PBE C_h 06Feb2004                 :
 energy of atom  1       EATOM= -147.1560
 kinetic energy error for atom=    0.0031 (will be added to EATOM!!)
  PAW_PBE H_h 06Feb2004                 :
 energy of atom  2       EATOM=  -12.4884
 kinetic energy error for atom=    0.0006 (will be added to EATOM!!)


 POSCAR:  C  H
  positions in cartesian coordinates
  No initial velocities read in

 METAGGA = SCAN                                        LMAXTAU =  6    LMIXTAU =  F

 exchange correlation table for  LEXCH =        8
   RHO(1)=    0.500       N(1)  =     2000
   RHO(2)=  100.500       N(2)  =     4000

 VTST: version 4.1, (05/19/21)

 CHAIN: initializing optimizer
 
 OPT: Using VASP Dynamics algorithm
 CHAIN: Read ICHAIN            0

 POSCAR:  C  H
  positions in cartesian coordinates
  No initial velocities read in



--------------------------------------------------------------------------------------------------------


 ion  position               nearest neighbor table
   1  0.500  0.500  0.419-  11 1.10  13 1.10   3 1.54   5 1.54
   2  0.500  0.500  0.581-  12 1.10  14 1.10   4 1.54   6 1.54
   3  0.508  0.557  0.460-  15 1.10  10 1.54   1 1.54   7 1.54
   4  0.443  0.508  0.540-  16 1.10   7 1.54   2 1.54   8 1.54
   5  0.492  0.443  0.460-  17 1.10   8 1.54   1 1.54   9 1.54
   6  0.557  0.492  0.540-  18 1.10   9 1.54   2 1.54  10 1.54
   7  0.451  0.564  0.500-  19 1.10  23 1.10   4 1.54   3 1.54
   8  0.436  0.451  0.500-  20 1.10  24 1.10   5 1.54   4 1.54
   9  0.549  0.436  0.500-  21 1.10  25 1.10   6 1.54   5 1.54
  10  0.564  0.549  0.500-  22 1.10  26 1.10   3 1.54   6 1.54
  11  0.460  0.505  0.389-   1 1.10
  12  0.495  0.460  0.611-   2 1.10
  13  0.540  0.495  0.390-   1 1.10
  14  0.505  0.540  0.611-   2 1.10
  15  0.513  0.597  0.431-   3 1.10
  16  0.403  0.513  0.569-   4 1.10
  17  0.487  0.403  0.431-   5 1.10
  18  0.597  0.487  0.569-   6 1.10
  19  0.410  0.571  0.472-   7 1.10
  20  0.429  0.410  0.528-   8 1.10
  21  0.590  0.429  0.472-   9 1.10
  22  0.571  0.590  0.528-  10 1.10
  23  0.456  0.605  0.529-   7 1.10
  24  0.395  0.456  0.471-   8 1.10
  25  0.544  0.395  0.529-   9 1.10
  26  0.605  0.544  0.471-  10 1.10

  LATTYP: Found a simple cubic cell.
 ALAT       =    22.0000000000
  
  Lattice vectors:
  
 A1 = (  22.0000000000,   0.0000000000,   0.0000000000)
 A2 = (   0.0000000000,  22.0000000000,   0.0000000000)
 A3 = (   0.0000000000,   0.0000000000,  22.0000000000)


Analysis of symmetry for initial positions (statically):
=====================================================================
 Subroutine PRICEL returns:
 Original cell was already a primitive cell.
 

 Routine SETGRP: Setting up the symmetry group for a 
 simple cubic supercell.


 Subroutine GETGRP returns: Found  1 space group operations
 (whereof  1 operations were pure point group operations)
 out of a pool of 48 trial point group operations.


The static configuration has the point symmetry C_1 .


Analysis of symmetry for dynamics (positions and initial velocities):
=====================================================================
 Subroutine PRICEL returns:
 Original cell was already a primitive cell.
 

 Routine SETGRP: Setting up the symmetry group for a 
 simple cubic supercell.


 Subroutine GETGRP returns: Found  1 space group operations
 (whereof  1 operations were pure point group operations)
 out of a pool of 48 trial point group operations.


The dynamic configuration has the point symmetry C_1 .


 Subroutine INISYM returns: Found  1 space group operations
 (whereof  1 operations are pure point group operations),
 and found     1 'primitive' translations


----------------------------------------------------------------------------------------

                                     Primitive cell                                     

  volume of cell :   10648.0000

  direct lattice vectors                    reciprocal lattice vectors
    22.000000000  0.000000000  0.000000000     0.045454545  0.000000000  0.000000000
     0.000000000 22.000000000  0.000000000     0.000000000  0.045454545  0.000000000
     0.000000000  0.000000000 22.000000000     0.000000000  0.000000000  0.045454545

  length of vectors
    22.000000000 22.000000000 22.000000000     0.045454545  0.045454545  0.045454545

  position of ions in fractional coordinates (direct lattice)
     0.500015000  0.500002727  0.419240455
     0.499991364  0.499999545  0.580775909
     0.507513636  0.556724545  0.459541364
     0.443271364  0.507514545  0.540472727
     0.492492727  0.443278182  0.459535000
     0.556718182  0.492483182  0.540482273
     0.450933182  0.564130455  0.500060909
     0.435871818  0.450940455  0.499938636
     0.549062727  0.435867273  0.500068182
     0.564125000  0.549062727  0.499960455
     0.460113636  0.505258636  0.389485455
     0.494727727  0.460088182  0.610511818
     0.539936818  0.494744091  0.389510000
     0.505256364  0.539912727  0.610514545
     0.512867273  0.597226818  0.430666364
     0.402762273  0.512863636  0.569343636
     0.487135909  0.402777273  0.430655455
     0.597223636  0.487128182  0.569355455
     0.410231818  0.570533636  0.471656818
     0.429454545  0.410232273  0.528332273
     0.589773636  0.429452727  0.471675455
     0.570529545  0.589769545  0.528359545
     0.455550909  0.605001364  0.528579091
     0.395005909  0.455564091  0.471416818
     0.544442727  0.394998636  0.528587727
     0.604994091  0.544457273  0.471438636

  ion indices of the primitive-cell ions
   primitive index   ion index
                 1           1
                 2           2
                 3           3
                 4           4
                 5           5
                 6           6
                 7           7
                 8           8
                 9           9
                10          10
                11          11
                12          12
                13          13
                14          14
                15          15
                16          16
                17          17
                18          18
                19          19
                20          20
                21          21
                22          22
                23          23
                24          24
                25          25
                26          26

----------------------------------------------------------------------------------------



 KPOINTS: auto                                    

Automatic generation of k-mesh.
 Grid dimensions read from file:
 generate k-points for:    1    1    1

 Generating k-lattice:

  Cartesian coordinates                     Fractional coordinates (reciprocal lattice)
     0.045454545  0.000000000  0.000000000     1.000000000  0.000000000  0.000000000
     0.000000000  0.045454545  0.000000000     0.000000000  1.000000000  0.000000000
     0.000000000  0.000000000  0.045454545     0.000000000  0.000000000  1.000000000

  Length of vectors
     0.045454545  0.045454545  0.045454545

  Shift w.r.t. Gamma in fractional coordinates (k-lattice)
     0.000000000  0.000000000  0.000000000

 
 Subroutine IBZKPT returns following result:
 ===========================================
 
 Found      1 irreducible k-points:
 
 Following reciprocal coordinates:
            Coordinates               Weight
  0.000000  0.000000  0.000000      1.000000
 
 Following cartesian coordinates:
            Coordinates               Weight
  0.000000  0.000000  0.000000      1.000000
 


--------------------------------------------------------------------------------------------------------




 Dimension of arrays:
   k-points           NKPTS =      1   k-points in BZ     NKDIM =      1   number of bands    NBANDS=     44
   number of dos      NEDOS =    301   number of ions     NIONS =     26
   non local maximal  LDIM  =      4   non local SUM 2l+1 LMDIM =      8
   total plane-waves  NPLWV = ******
   max r-space proj   IRMAX =      1   max aug-charges    IRDMAX=   8811
   dimension x,y,z NGX =   240 NGY =  240 NGZ =  240
   dimension x,y,z NGXF=   480 NGYF=  480 NGZF=  480
   support grid    NGXF=   480 NGYF=  480 NGZF=  480
   ions per type =              10  16
   NGX,Y,Z   is equivalent  to a cutoff of  18.14, 18.14, 18.14 a.u.
   NGXF,Y,Z  is equivalent  to a cutoff of  36.27, 36.27, 36.27 a.u.

 SYSTEM =  unknown system                          
 POSCAR =   C  H                                   

 Startparameter for this run:
   NWRITE =      2    write-flag & timer
   PREC   = accura    normal or accurate (medium, high low for compatibility)
   ISTART =      0    job   : 0-new  1-cont  2-samecut
   ICHARG =      2    charge: 1-file 2-atom 10-const
   ISPIN  =      1    spin polarized calculation?
   LNONCOLLINEAR =      F non collinear calculations
   LSORBIT =      F    spin-orbit coupling
   INIWAV =      1    electr: 0-lowe 1-rand  2-diag
   LASPH  =      T    aspherical Exc in radial PAW
 Electronic Relaxation 1
   ENCUT  = 1000.0 eV  73.50 Ry    8.57 a.u.  56.73 56.73 56.73*2*pi/ulx,y,z
   ENINI  = 1000.0     initial cutoff
   ENAUG  = 1000.0 eV  augmentation charge cutoff
   NELM   =     60;   NELMIN=  2; NELMDL= -5     # of ELM steps 
   EDIFF  = 0.1E-06   stopping-criterion for ELM
   LREAL  =      F    real-space projection
   NLSPLINE    = F    spline interpolate recip. space projectors
   LCOMPAT=      F    compatible to vasp.4.4
   GGA_COMPAT  = T    GGA compatible to vasp.4.4-vasp.4.6
   LMAXPAW     = -100 max onsite density
   LMAXMIX     =    2 max onsite mixed and CHGCAR
   VOSKOWN=      0    Vosko Wilk Nusair interpolation
   ROPT   =    0.00000   0.00000
 Ionic relaxation
   EDIFFG = 0.1E-05   stopping-criterion for IOM
   NSW    =      0    number of steps for IOM
   NBLOCK =      1;   KBLOCK =      1    inner block; outer block 
   IBRION =     -1    ionic relax: 0-MD 1-quasi-New 2-CG
   NFREE  =      0    steps in history (QN), initial steepest desc. (CG)
   ISIF   =      0    stress and relaxation
   IWAVPR =     10    prediction:  0-non 1-charg 2-wave 3-comb
   ISYM   =      2    0-nonsym 1-usesym 2-fastsym
   LCORR  =      T    Harris-Foulkes like correction to forces

   POTIM  = 0.5000    time-step for ionic-motion
   TEIN   =    0.0    initial temperature
   TEBEG  =    0.0;   TEEND  =   0.0 temperature during run
   SMASS  =  -3.00    Nose mass-parameter (am)
   estimated Nose-frequenzy (Omega)   =  0.10E-29 period in steps = 0.13E+47 mass=  -0.111E-25a.u.
   SCALEE = 1.0000    scale energy and forces
   NPACO  =    256;   APACO  = 10.0  distance and # of slots for P.C.
   PSTRESS=    0.0 pullay stress

  Mass of Ions in am
   POMASS =  12.01  1.00
  Ionic Valenz
   ZVAL   =   4.00  1.00
  Atomic Wigner-Seitz radii
   RWIGS  =  -1.00 -1.00
  virtual crystal weights 
   VCA    =   1.00  1.00
   NELECT =      56.0000    total number of electrons
   NUPDOWN=      -1.0000    fix difference up-down

 DOS related values:
   EMIN   =  10.00;   EMAX   =-10.00  energy-range for DOS
   EFERMI =   0.00;   METHOD = LEGACY      
   ISMEAR =     0;   SIGMA  =   0.01  broadening in eV -4-tet -1-fermi 0-gaus

 Electronic relaxation 2 (details)
   IALGO  =     58    algorithm
   LDIAG  =      T    sub-space diagonalisation (order eigenvalues)
   LSUBROT=      F    optimize rotation matrix (better conditioning)
   TURBO    =      0    0=normal 1=particle mesh
   IRESTART =      0    0=no restart 2=restart with 2 vectors
   NREBOOT  =      0    no. of reboots
   NMIN     =      0    reboot dimension
   EREF     =   0.00    reference energy to select bands
   IMIX   =      4    mixing-type and parameters
     AMIX     =   0.40;   BMIX     =  1.00
     AMIX_MAG =   1.60;   BMIX_MAG =  1.00
     AMIN     =   0.10
     WC   =   100.;   INIMIX=   1;  MIXPRE=   1;  MAXMIX= -45

 Intra band minimization:
   WEIMIN = 0.0000     energy-eigenvalue tresh-hold
   EBREAK =  0.57E-09  absolut break condition
   DEPER  =   0.30     relativ break condition  

   TIME   =   0.40     timestep for ELM

  volume/ion in A,a.u.               =     409.54      2763.70
  Fermi-wavevector in a.u.,A,eV,Ry     =   0.284696  0.537998  1.102778  0.081052
  Thomas-Fermi vector in A             =   1.137744

 Write flags
   LWAVE        =      F    write WAVECAR
   LDOWNSAMPLE  =      F    k-point downsampling of WAVECAR
   LCHARG       =      F    write CHGCAR
   LVTOT        =      F    write LOCPOT, total local potential
   LVHAR        =      F    write LOCPOT, Hartree potential only
   LELF         =      F    write electronic localiz. function (ELF)
   LORBIT       =      0    0 simple, 1 ext, 2 COOP (PROOUT), +10 PAW based schemes


 Dipole corrections
   LMONO  =      F    monopole corrections only (constant potential shift)
   LDIPOL =      F    correct potential (dipole corrections)
   IDIPOL =      0    1-x, 2-y, 3-z, 4-all directions 
   EPSILON=  1.0000000 bulk dielectric constant

 Exchange correlation treatment:
   GGA     =    --    GGA type
   LEXCH   =     8    internal setting for exchange type
   LIBXC   =     F    Libxc                    
   VOSKOWN =     0    Vosko Wilk Nusair interpolation
   LHFCALC =     F    Hartree Fock is set to
   LHFONE  =     F    Hartree Fock one center treatment
   AEXX    =    0.0000 exact exchange contribution

 Linear response parameters
   LEPSILON=     F    determine dielectric tensor
   LRPA    =     F    only Hartree local field effects (RPA)
   LNABLA  =     F    use nabla operator in PAW spheres
   LVEL    =     F    velocity operator in full k-point grid
   CSHIFT  =0.1000    complex shift for real part using Kramers Kronig
   OMEGAMAX=  -1.0    maximum frequency
   DEG_THRESHOLD= 0.2000000E-02 threshold for treating states as degnerate
   RTIME   =   -0.100 relaxation time in fs
  (WPLASMAI=    0.000 imaginary part of plasma frequency in eV, 0.658/RTIME)
   DFIELD  = 0.0000000 0.0000000 0.0000000 field for delta impulse in time

  Optional k-point grid parameters
   LKPOINTS_OPT  =     F    use optional k-point grid
   KPOINTS_OPT_MODE=     1    mode for optional k-point grid

 Orbital magnetization related:
   ORBITALMAG=     F  switch on orbital magnetization
   LCHIMAG   =     F  perturbation theory with respect to B field
   DQ        =  0.001000  dq finite difference perturbation B field
   LLRAUG    =     F  two centre corrections for induced B field
   LBONE     =     F  B-component reconstruction in AE one-centre
   LVGVCALC  =     T  calculate vGv susceptibility
   LVGVAPPL  =     F  apply vGv susceptibility instead of pGv for G=0

 Random number generation:
   RANDOM_GENERATOR = DEFAULT
   PCG_SEED         = not used


--------------------------------------------------------------------------------------------------------


 Static calculation
 charge density and potential will be updated during run
 non-spin polarized calculation
 Conjugate gradient for all bands (Freysoldt, et al. PRB 79, 241103 (2009))
 preconditioned conjugated gradient                                        
 perform sub-space diagonalisation
    before iterative eigenvector-optimisation
 modified Broyden-mixing scheme, WC =      100.0
 initial mixing is a Kerker type mixing with AMIX =  0.4000 and BMIX =      1.0000
 Hartree-type preconditioning will be used
 using additional bands           16
 reciprocal scheme for non local part
 use partial core corrections
 no Harris-corrections to forces 
 use gradient corrections 
 use of overlap-Matrix (Vanderbilt PP)
 Gauss-broadening in eV      SIGMA  =   0.01


--------------------------------------------------------------------------------------------------------


  energy-cutoff  :     1000.00
  volume of cell :    10648.00
      direct lattice vectors                 reciprocal lattice vectors
    22.000000000  0.000000000  0.000000000     0.045454545  0.000000000  0.000000000
     0.000000000 22.000000000  0.000000000     0.000000000  0.045454545  0.000000000
     0.000000000  0.000000000 22.000000000     0.000000000  0.000000000  0.045454545

  length of vectors
    22.000000000 22.000000000 22.000000000     0.045454545  0.045454545  0.045454545



 k-points in units of 2pi/SCALE and weight: auto                                    
   0.00000000  0.00000000  0.00000000       1.000

 k-points in reciprocal lattice and weights: auto                                    
   0.00000000  0.00000000  0.00000000       1.000

 position of ions in fractional coordinates (direct lattice) 
   0.50001500  0.50000273  0.41924045
   0.49999136  0.49999955  0.58077591
   0.50751364  0.55672455  0.45954136
   0.44327136  0.50751455  0.54047273
   0.49249273  0.44327818  0.45953500
   0.55671818  0.49248318  0.54048227
   0.45093318  0.56413045  0.50006091
   0.43587182  0.45094045  0.49993864
   0.54906273  0.43586727  0.50006818
   0.56412500  0.54906273  0.49996045
   0.46011364  0.50525864  0.38948545
   0.49472773  0.46008818  0.61051182
   0.53993682  0.49474409  0.38951000
   0.50525636  0.53991273  0.61051455
   0.51286727  0.59722682  0.43066636
   0.40276227  0.51286364  0.56934364
   0.48713591  0.40277727  0.43065545
   0.59722364  0.48712818  0.56935545
   0.41023182  0.57053364  0.47165682
   0.42945455  0.41023227  0.52833227
   0.58977364  0.42945273  0.47167545
   0.57052955  0.58976955  0.52835955
   0.45555091  0.60500136  0.52857909
   0.39500591  0.45556409  0.47141682
   0.54444273  0.39499864  0.52858773
   0.60499409  0.54445727  0.47143864

 position of ions in cartesian coordinates  (Angst):
  11.00033000 11.00006000  9.22329000
  10.99981000 10.99999000 12.77707000
  11.16530000 12.24794000 10.10991000
   9.75197000 11.16532000 11.89040000
  10.83484000  9.75212000 10.10977000
  12.24780000 10.83463000 11.89061000
   9.92053000 12.41087000 11.00134000
   9.58918000  9.92069000 10.99865000
  12.07938000  9.58908000 11.00150000
  12.41075000 12.07938000 10.99913000
  10.12250000 11.11569000  8.56868000
  10.88401000 10.12194000 13.43126000
  11.87861000 10.88437000  8.56922000
  11.11564000 11.87808000 13.43132000
  11.28308000 13.13899000  9.47466000
   8.86077000 11.28300000 12.52556000
  10.71699000  8.86110000  9.47442000
  13.13892000 10.71682000 12.52582000
   9.02510000 12.55174000 10.37645000
   9.44800000  9.02511000 11.62331000
  12.97502000  9.44796000 10.37686000
  12.55165000 12.97493000 11.62391000
  10.02212000 13.31003000 11.62874000
   8.69013000 10.02241000 10.37117000
  11.97774000  8.68997000 11.62893000
  13.30987000 11.97806000 10.37165000



--------------------------------------------------------------------------------------------------------


 use parallel FFT for orbitals z direction half grid
 k-point   1 :   0.0000 0.0000 0.0000  plane waves:  381993

 maximum and minimum number of plane-waves per node :     11948    11928

 maximum number of plane-waves:    381993
 maximum index in each direction: 
   IXMAX=   56   IYMAX=   56   IZMAX=   56
   IXMIN=  -56   IYMIN=  -56   IZMIN=    0


 parallel 3D FFT for wavefunctions:
    minimum data exchange during FFTs selected (reduces bandwidth)
 parallel 3D FFT for charge:
    minimum data exchange during FFTs selected (reduces bandwidth)


 total amount of memory used by VASP MPI-rank0   175250. kBytes
=======================================================================

   base      :      30000. kBytes
   nonl-proj :       6491. kBytes
   fftplans  :      40084. kBytes
   grid      :      92374. kBytes
   one-center:          1. kBytes
   wavefun   :       6300. kBytes

     INWAV:  cpu time      0.0000: real time      0.0000
 Broyden mixing: mesh for mixing (old mesh)
   NGX =113   NGY =113   NGZ =113
  (NGX  =480   NGY  =480   NGZ  =480)
  gives a total of ****** points

 initial charge density was supplied:
 charge density of overlapping atoms calculated
 number of electron      56.0000000 magnetization 
 keeping initial charge density in first step


--------------------------------------------------------------------------------------------------------


 Maximum index for augmentation-charges          318 (set IRDMAX)


--------------------------------------------------------------------------------------------------------


 First call to EWALD:  gamma=   0.081
 Maximum number of real-space cells 3x 3x 3
 Maximum number of reciprocal cells 3x 3x 3

    FEWALD:  cpu time      0.0022: real time      0.0022


--------------------------------------- Ionic step        1  -------------------------------------------




--------------------------------------- Iteration      1(   1)  ---------------------------------------


    POTLOK:  cpu time      3.5732: real time      3.5749
    SETDIJ:  cpu time      0.3537: real time      0.3542
    TRIAL :  cpu time     10.2203: real time     10.2262
    CORREC:  cpu time      0.0002: real time      0.0002
    --------------------------------------------
      LOOP:  cpu time     14.1643: real time     14.1726

 eigenvalue-minimisations  :   104
 total energy-change (2. order) : 0.5525768E+03  (-0.1644710E+04)
 number of electron      56.0000000 magnetization 
 augmentation part       56.0000000 magnetization 

 Free energy of the ion-electron system (eV)
  ---------------------------------------------------
  alpha Z        PSCENC =         0.92446154
  Ewald energy   TEWEN  =      5822.64067415
  -Hartree energ DENC   =     -6863.70436586
  -exchange      EXHF   =         0.00000000
  -V(xc)+E(xc)   XCENC  =       150.10303168
  PAW double counting   =      1120.06569428    -1090.67874205
  entropy T*S    EENTRO =        -0.00000000
  eigenvalues    EBANDS =      -258.10760881
  atomic energy  EATOM  =      1671.33363589
  ---------------------------------------------------
  free energy    TOTEN  =       552.57678082 eV

  energy without entropy =      552.57678082  energy(sigma->0) =      552.57678082


--------------------------------------------------------------------------------------------------------




--------------------------------------- Iteration      1(   2)  ---------------------------------------


    TRIAL :  cpu time     12.4289: real time     12.4350
    CORREC:  cpu time      0.0001: real time      0.0001
    --------------------------------------------
      LOOP:  cpu time     12.4426: real time     12.4624

 eigenvalue-minimisations  :   144
 total energy-change (2. order) :-0.3113537E+03  (-0.2779038E+03)
 number of electron      56.0000000 magnetization 
 augmentation part       56.0000000 magnetization 

 Free energy of the ion-electron system (eV)
  ---------------------------------------------------
  alpha Z        PSCENC =         0.92446154
  Ewald energy   TEWEN  =      5822.64067415
  -Hartree energ DENC   =     -6863.70436586
  -exchange      EXHF   =         0.00000000
  -V(xc)+E(xc)   XCENC  =       150.10303168
  PAW double counting   =      1120.06569428    -1090.67874205
  entropy T*S    EENTRO =        -0.00000000
  eigenvalues    EBANDS =      -569.46130777
  atomic energy  EATOM  =      1671.33363589
  ---------------------------------------------------
  free energy    TOTEN  =       241.22308186 eV

  energy without entropy =      241.22308186  energy(sigma->0) =      241.22308186


--------------------------------------------------------------------------------------------------------




--------------------------------------- Iteration      1(   3)  ---------------------------------------


    TRIAL :  cpu time     12.4286: real time     12.4352
    CORREC:  cpu time      0.0001: real time      0.0001
    --------------------------------------------
      LOOP:  cpu time     12.4450: real time     12.4637

 eigenvalue-minimisations  :   144
 total energy-change (2. order) :-0.3463463E+03  (-0.3420870E+03)
 number of electron      56.0000000 magnetization 
 augmentation part       56.0000000 magnetization 

 Free energy of the ion-electron system (eV)
  ---------------------------------------------------
  alpha Z        PSCENC =         0.92446154
  Ewald energy   TEWEN  =      5822.64067415
  -Hartree energ DENC   =     -6863.70436586
  -exchange      EXHF   =         0.00000000
  -V(xc)+E(xc)   XCENC  =       150.10303168
  PAW double counting   =      1120.06569428    -1090.67874205
  entropy T*S    EENTRO =        -0.00000000
  eigenvalues    EBANDS =      -915.80761103
  atomic energy  EATOM  =      1671.33363589
  ---------------------------------------------------
  free energy    TOTEN  =      -105.12322140 eV

  energy without entropy =     -105.12322140  energy(sigma->0) =     -105.12322140


--------------------------------------------------------------------------------------------------------




--------------------------------------- Iteration      1(   4)  ---------------------------------------


    TRIAL :  cpu time     11.0969: real time     11.1026
    CORREC:  cpu time      0.0001: real time      0.0001
    --------------------------------------------
      LOOP:  cpu time     11.1247: real time     11.1306

 eigenvalue-minimisations  :   120
 total energy-change (2. order) :-0.7905192E+02  (-0.7889728E+02)
 number of electron      56.0000000 magnetization 
 augmentation part       56.0000000 magnetization 

 Free energy of the ion-electron system (eV)
  ---------------------------------------------------
  alpha Z        PSCENC =         0.92446154
  Ewald energy   TEWEN  =      5822.64067415
  -Hartree energ DENC   =     -6863.70436586
  -exchange      EXHF   =         0.00000000
  -V(xc)+E(xc)   XCENC  =       150.10303168
  PAW double counting   =      1120.06569428    -1090.67874205
  entropy T*S    EENTRO =        -0.00000000
  eigenvalues    EBANDS =      -994.85952845
  atomic energy  EATOM  =      1671.33363589
  ---------------------------------------------------
  free energy    TOTEN  =      -184.17513882 eV

  energy without entropy =     -184.17513882  energy(sigma->0) =     -184.17513882


--------------------------------------------------------------------------------------------------------




--------------------------------------- Iteration      1(   5)  ---------------------------------------


    TRIAL :  cpu time     10.2212: real time     10.2267
    CORREC:  cpu time      0.0001: real time      0.0001
    CHARGE:  cpu time      1.6101: real time      1.6112
    --------------------------------------------
      LOOP:  cpu time     11.8449: real time     11.8668

 eigenvalue-minimisations  :   104
 total energy-change (2. order) :-0.3535118E+01  (-0.3526512E+01)
 number of electron      56.0000000 magnetization 
 augmentation part        0.0061985 magnetization 

 Free energy of the ion-electron system (eV)
  ---------------------------------------------------
  alpha Z        PSCENC =         0.92446154
  Ewald energy   TEWEN  =      5822.64067415
  -Hartree energ DENC   =     -6863.70436586
  -exchange      EXHF   =         0.00000000
  -V(xc)+E(xc)   XCENC  =       150.10303168
  PAW double counting   =      1120.06569428    -1090.67874205
  entropy T*S    EENTRO =        -0.00000000
  eigenvalues    EBANDS =      -998.39464665
  atomic energy  EATOM  =      1671.33363589
  ---------------------------------------------------
  free energy    TOTEN  =      -187.71025702 eV

  energy without entropy =     -187.71025702  energy(sigma->0) =     -187.71025702


--------------------------------------------------------------------------------------------------------




--------------------------------------- Iteration      1(   6)  ---------------------------------------


    POTLOK:  cpu time      3.5510: real time      3.5531
    SETDIJ:  cpu time      0.3111: real time      0.3111
    TRIAL :  cpu time      9.1891: real time      9.1949
    CORREC:  cpu time      7.8003: real time      7.8039
    CHARGE:  cpu time      1.5677: real time      1.5687
    --------------------------------------------
      LOOP:  cpu time     22.4346: real time     22.4628

 eigenvalue-minimisations  :     0
 total energy-change (2. order) : 0.3924356E+02  (-0.9648676E+01)
 number of electron      56.0000000 magnetization 
 augmentation part        0.0001612 magnetization 

 Free energy of the ion-electron system (eV)
  ---------------------------------------------------
  alpha Z        PSCENC =         0.92446154
  Ewald energy   TEWEN  =      5822.64067415
  -Hartree energ DENC   =     -7472.04440527
  -exchange      EXHF   =         0.00000000
  -V(xc)+E(xc)   XCENC  =       176.73389810
  PAW double counting   =     17911.09193553   -17883.30085285
  entropy T*S    EENTRO =        -0.00000000
  eigenvalues    EBANDS =      -375.84604582
  atomic energy  EATOM  =      1671.33363589
  ---------------------------------------------------
  free energy    TOTEN  =      -148.46669874 eV

  energy without entropy =     -148.46669874  energy(sigma->0) =     -148.46669874


--------------------------------------------------------------------------------------------------------




--------------------------------------- Iteration      1(   7)  ---------------------------------------


    POTLOK:  cpu time      3.5455: real time      3.5471
    SETDIJ:  cpu time      0.3086: real time      0.3089
    TRIAL :  cpu time      9.2227: real time      9.2278
    CORREC:  cpu time      7.7907: real time      7.7948
    CHARGE:  cpu time      1.5646: real time      1.5652
    --------------------------------------------
      LOOP:  cpu time     22.4473: real time     22.4738

 eigenvalue-minimisations  :     0
 total energy-change (2. order) :-0.9716787E+01  (-0.1383725E+01)
 number of electron      56.0000000 magnetization 
 augmentation part       -0.0093189 magnetization 

 Free energy of the ion-electron system (eV)
  ---------------------------------------------------
  alpha Z        PSCENC =         0.92446154
  Ewald energy   TEWEN  =      5822.64067415
  -Hartree energ DENC   =     -7205.71886973
  -exchange      EXHF   =         0.00000000
  -V(xc)+E(xc)   XCENC  =       168.08322533
  PAW double counting   =     21275.46214937   -21246.61480154
  entropy T*S    EENTRO =        -0.00000000
  eigenvalues    EBANDS =      -644.29396027
  atomic energy  EATOM  =      1671.33363589
  ---------------------------------------------------
  free energy    TOTEN  =      -158.18348528 eV

  energy without entropy =     -158.18348528  energy(sigma->0) =     -158.18348528


--------------------------------------------------------------------------------------------------------




--------------------------------------- Iteration      1(   8)  ---------------------------------------


    POTLOK:  cpu time      3.5505: real time      3.5525
    SETDIJ:  cpu time      0.2996: real time      0.2996
    TRIAL :  cpu time      9.2278: real time      9.2325
    CORREC:  cpu time      7.8059: real time      7.8100
    CHARGE:  cpu time      1.5655: real time      1.5667
    --------------------------------------------
      LOOP:  cpu time     22.4643: real time     22.4930

 eigenvalue-minimisations  :     0
 total energy-change (2. order) :-0.1394081E+01  (-0.5206940E+00)
 number of electron      56.0000000 magnetization 
 augmentation part       -0.0063459 magnetization 

 Free energy of the ion-electron system (eV)
  ---------------------------------------------------
  alpha Z        PSCENC =         0.92446154
  Ewald energy   TEWEN  =      5822.64067415
  -Hartree energ DENC   =     -7207.65719556
  -exchange      EXHF   =         0.00000000
  -V(xc)+E(xc)   XCENC  =       167.79219597
  PAW double counting   =     23816.25599988   -23787.19272226
  entropy T*S    EENTRO =        -0.00000000
  eigenvalues    EBANDS =      -643.67461621
  atomic energy  EATOM  =      1671.33363589
  ---------------------------------------------------
  free energy    TOTEN  =      -159.57756660 eV

  energy without entropy =     -159.57756660  energy(sigma->0) =     -159.57756660


--------------------------------------------------------------------------------------------------------




--------------------------------------- Iteration      1(   9)  ---------------------------------------


    POTLOK:  cpu time      3.5573: real time      3.5589
    SETDIJ:  cpu time      0.3078: real time      0.3080
    TRIAL :  cpu time      9.2382: real time      9.2434
    CORREC:  cpu time      7.8020: real time      7.8071
    CHARGE:  cpu time      1.5685: real time      1.5692
    --------------------------------------------
      LOOP:  cpu time     22.4878: real time     22.5155

 eigenvalue-minimisations  :     0
 total energy-change (2. order) :-0.5099789E+00  (-0.1903512E+00)
 number of electron      56.0000000 magnetization 
 augmentation part       -0.0053947 magnetization 

 Free energy of the ion-electron system (eV)
  ---------------------------------------------------
  alpha Z        PSCENC =         0.92446154
  Ewald energy   TEWEN  =      5822.64067415
  -Hartree energ DENC   =     -7182.38043055
  -exchange      EXHF   =         0.00000000
  -V(xc)+E(xc)   XCENC  =       167.10625348
  PAW double counting   =     24715.91206548   -24686.67435766
  entropy T*S    EENTRO =        -0.00000000
  eigenvalues    EBANDS =      -668.94984778
  atomic energy  EATOM  =      1671.33363589
  ---------------------------------------------------
  free energy    TOTEN  =      -160.08754546 eV

  energy without entropy =     -160.08754546  energy(sigma->0) =     -160.08754546


--------------------------------------------------------------------------------------------------------




--------------------------------------- Iteration      1(  10)  ---------------------------------------


    POTLOK:  cpu time      3.5533: real time      3.5555
    SETDIJ:  cpu time      0.3073: real time      0.3074
    TRIAL :  cpu time      9.2325: real time      9.2380
    CORREC:  cpu time      7.7941: real time      7.7980
    CHARGE:  cpu time      1.5689: real time      1.5702
    --------------------------------------------
      LOOP:  cpu time     22.4873: real time     22.5004

 eigenvalue-minimisations  :     0
 total energy-change (2. order) :-0.1886435E+00  (-0.5132687E-01)
 number of electron      56.0000000 magnetization 
 augmentation part       -0.0054187 magnetization 

 Free energy of the ion-electron system (eV)
  ---------------------------------------------------
  alpha Z        PSCENC =         0.92446154
  Ewald energy   TEWEN  =      5822.64067415
  -Hartree energ DENC   =     -7180.53049332
  -exchange      EXHF   =         0.00000000
  -V(xc)+E(xc)   XCENC  =       167.25294118
  PAW double counting   =     24343.45546040   -24314.25376567
  entropy T*S    EENTRO =        -0.00000000
  eigenvalues    EBANDS =      -671.09910316
  atomic energy  EATOM  =      1671.33363589
  ---------------------------------------------------
  free energy    TOTEN  =      -160.27618899 eV

  energy without entropy =     -160.27618899  energy(sigma->0) =     -160.27618899


--------------------------------------------------------------------------------------------------------




--------------------------------------- Iteration      1(  11)  ---------------------------------------


    POTLOK:  cpu time      3.5481: real time      3.5499
    SETDIJ:  cpu time      0.3071: real time      0.3074
    TRIAL :  cpu time      9.2302: real time      9.2354
    CORREC:  cpu time      7.7888: real time      7.7934
    CHARGE:  cpu time      1.5638: real time      1.5644
    --------------------------------------------
      LOOP:  cpu time     22.4512: real time     22.4814

 eigenvalue-minimisations  :     0
 total energy-change (2. order) :-0.5119854E-01  (-0.1444852E-01)
 number of electron      56.0000000 magnetization 
 augmentation part       -0.0056708 magnetization 

 Free energy of the ion-electron system (eV)
  ---------------------------------------------------
  alpha Z        PSCENC =         0.92446154
  Ewald energy   TEWEN  =      5822.64067415
  -Hartree energ DENC   =     -7181.12923357
  -exchange      EXHF   =         0.00000000
  -V(xc)+E(xc)   XCENC  =       167.27360138
  PAW double counting   =     23879.49029173   -23850.33486781
  entropy T*S    EENTRO =        -0.00000000
  eigenvalues    EBANDS =      -670.52595085
  atomic energy  EATOM  =      1671.33363589
  ---------------------------------------------------
  free energy    TOTEN  =      -160.32738753 eV

  energy without entropy =     -160.32738753  energy(sigma->0) =     -160.32738753


--------------------------------------------------------------------------------------------------------




--------------------------------------- Iteration      1(  12)  ---------------------------------------


    POTLOK:  cpu time      3.5479: real time      3.5499
    SETDIJ:  cpu time      0.3041: real time      0.3041
    TRIAL :  cpu time      9.2301: real time      9.2350
    CORREC:  cpu time      7.8439: real time      7.8476
    CHARGE:  cpu time      1.5655: real time      1.5665
    --------------------------------------------
      LOOP:  cpu time     22.5050: real time     22.5338

 eigenvalue-minimisations  :     0
 total energy-change (2. order) :-0.1445234E-01  (-0.4222846E-02)
 number of electron      56.0000000 magnetization 
 augmentation part       -0.0057750 magnetization 

 Free energy of the ion-electron system (eV)
  ---------------------------------------------------
  alpha Z        PSCENC =         0.92446154
  Ewald energy   TEWEN  =      5822.64067415
  -Hartree energ DENC   =     -7178.43986547
  -exchange      EXHF   =         0.00000000
  -V(xc)+E(xc)   XCENC  =       167.12489587
  PAW double counting   =     23636.60006303   -23607.45577875
  entropy T*S    EENTRO =        -0.00000000
  eigenvalues    EBANDS =      -673.06992613
  atomic energy  EATOM  =      1671.33363589
  ---------------------------------------------------
  free energy    TOTEN  =      -160.34183988 eV

  energy without entropy =     -160.34183988  energy(sigma->0) =     -160.34183988


--------------------------------------------------------------------------------------------------------




--------------------------------------- Iteration      1(  13)  ---------------------------------------


    POTLOK:  cpu time      3.5454: real time      3.5469
    SETDIJ:  cpu time      0.3066: real time      0.3068
    TRIAL :  cpu time      9.2307: real time      9.2356
    CORREC:  cpu time      7.7937: real time      7.7980
    CHARGE:  cpu time      1.5675: real time      1.5681
    --------------------------------------------
      LOOP:  cpu time     22.4610: real time     22.4866

 eigenvalue-minimisations  :     0
 total energy-change (2. order) :-0.4233233E-02  (-0.1324966E-02)
 number of electron      56.0000000 magnetization 
 augmentation part       -0.0057311 magnetization 

 Free energy of the ion-electron system (eV)
  ---------------------------------------------------
  alpha Z        PSCENC =         0.92446154
  Ewald energy   TEWEN  =      5822.64067415
  -Hartree energ DENC   =     -7179.77805552
  -exchange      EXHF   =         0.00000000
  -V(xc)+E(xc)   XCENC  =       167.12336664
  PAW double counting   =     23559.42926387   -23530.29646280
  entropy T*S    EENTRO =        -0.00000000
  eigenvalues    EBANDS =      -671.72295687
  atomic energy  EATOM  =      1671.33363589
  ---------------------------------------------------
  free energy    TOTEN  =      -160.34607311 eV

  energy without entropy =     -160.34607311  energy(sigma->0) =     -160.34607311


--------------------------------------------------------------------------------------------------------




--------------------------------------- Iteration      1(  14)  ---------------------------------------


    POTLOK:  cpu time      3.5489: real time      3.5509
    SETDIJ:  cpu time      0.3104: real time      0.3104
    TRIAL :  cpu time      9.2538: real time      9.2590
    CORREC:  cpu time      7.7997: real time      7.8034
    CHARGE:  cpu time      1.5641: real time      1.5652
    --------------------------------------------
      LOOP:  cpu time     22.4898: real time     22.5186

 eigenvalue-minimisations  :     0
 total energy-change (2. order) :-0.1331400E-02  (-0.4237984E-03)
 number of electron      56.0000000 magnetization 
 augmentation part       -0.0055775 magnetization 

 Free energy of the ion-electron system (eV)
  ---------------------------------------------------
  alpha Z        PSCENC =         0.92446154
  Ewald energy   TEWEN  =      5822.64067415
  -Hartree energ DENC   =     -7179.85957044
  -exchange      EXHF   =         0.00000000
  -V(xc)+E(xc)   XCENC  =       167.12034774
  PAW double counting   =     23545.14324431   -23516.01331654
  entropy T*S    EENTRO =        -0.00000000
  eigenvalues    EBANDS =      -671.63688115
  atomic energy  EATOM  =      1671.33363589
  ---------------------------------------------------
  free energy    TOTEN  =      -160.34740451 eV

  energy without entropy =     -160.34740451  energy(sigma->0) =     -160.34740451


--------------------------------------------------------------------------------------------------------




--------------------------------------- Iteration      1(  15)  ---------------------------------------


    POTLOK:  cpu time      3.5827: real time      3.5844
    SETDIJ:  cpu time      0.2701: real time      0.2703
    TRIAL :  cpu time      9.2296: real time      9.2347
    CORREC:  cpu time      7.7931: real time      7.7968
    CHARGE:  cpu time      1.5672: real time      1.5677
    --------------------------------------------
      LOOP:  cpu time     22.4732: real time     22.4845

 eigenvalue-minimisations  :     0
 total energy-change (2. order) :-0.4288711E-03  (-0.1400615E-03)
 number of electron      56.0000000 magnetization 
 augmentation part       -0.0054247 magnetization 

 Free energy of the ion-electron system (eV)
  ---------------------------------------------------
  alpha Z        PSCENC =         0.92446154
  Ewald energy   TEWEN  =      5822.64067415
  -Hartree energ DENC   =     -7179.85835873
  -exchange      EXHF   =         0.00000000
  -V(xc)+E(xc)   XCENC  =       167.12221808
  PAW double counting   =     23548.48634554   -23519.35622952
  entropy T*S    EENTRO =        -0.00000000
  eigenvalues    EBANDS =      -671.64058032
  atomic energy  EATOM  =      1671.33363589
  ---------------------------------------------------
  free energy    TOTEN  =      -160.34783338 eV

  energy without entropy =     -160.34783338  energy(sigma->0) =     -160.34783338


--------------------------------------------------------------------------------------------------------




--------------------------------------- Iteration      1(  16)  ---------------------------------------


    POTLOK:  cpu time      3.5504: real time      3.5523
    SETDIJ:  cpu time      0.3016: real time      0.3016
    TRIAL :  cpu time      9.2243: real time      9.2292
    CORREC:  cpu time      7.7984: real time      7.8019
    CHARGE:  cpu time      1.5625: real time      1.5637
    --------------------------------------------
      LOOP:  cpu time     22.4509: real time     22.4799

 eigenvalue-minimisations  :     0
 total energy-change (2. order) :-0.1430575E-03  (-0.4645584E-04)
 number of electron      56.0000000 magnetization 
 augmentation part       -0.0053525 magnetization 

 Free energy of the ion-electron system (eV)
  ---------------------------------------------------
  alpha Z        PSCENC =         0.92446154
  Ewald energy   TEWEN  =      5822.64067415
  -Hartree energ DENC   =     -7180.14573986
  -exchange      EXHF   =         0.00000000
  -V(xc)+E(xc)   XCENC  =       167.13128701
  PAW double counting   =     23555.16131173   -23526.03081002
  entropy T*S    EENTRO =        -0.00000000
  eigenvalues    EBANDS =      -671.36279687
  atomic energy  EATOM  =      1671.33363589
  ---------------------------------------------------
  free energy    TOTEN  =      -160.34797644 eV

  energy without entropy =     -160.34797644  energy(sigma->0) =     -160.34797644


--------------------------------------------------------------------------------------------------------




--------------------------------------- Iteration      1(  17)  ---------------------------------------


    POTLOK:  cpu time      3.5504: real time      3.5518
    SETDIJ:  cpu time      0.3057: real time      0.3059
    TRIAL :  cpu time      9.2234: real time      9.2282
    CORREC:  cpu time      7.7902: real time      7.7943
    CHARGE:  cpu time      1.5629: real time      1.5635
    --------------------------------------------
      LOOP:  cpu time     22.4466: real time     22.4735

 eigenvalue-minimisations  :     0
 total energy-change (2. order) :-0.4697168E-04  (-0.1407319E-04)
 number of electron      56.0000000 magnetization 
 augmentation part       -0.0053229 magnetization 

 Free energy of the ion-electron system (eV)
  ---------------------------------------------------
  alpha Z        PSCENC =         0.92446154
  Ewald energy   TEWEN  =      5822.64067415
  -Hartree energ DENC   =     -7180.05007711
  -exchange      EXHF   =         0.00000000
  -V(xc)+E(xc)   XCENC  =       167.12946387
  PAW double counting   =     23560.21267380   -23531.08091223
  entropy T*S    EENTRO =        -0.00000000
  eigenvalues    EBANDS =      -671.45794332
  atomic energy  EATOM  =      1671.33363589
  ---------------------------------------------------
  free energy    TOTEN  =      -160.34802341 eV

  energy without entropy =     -160.34802341  energy(sigma->0) =     -160.34802341


--------------------------------------------------------------------------------------------------------




--------------------------------------- Iteration      1(  18)  ---------------------------------------


    POTLOK:  cpu time      3.5512: real time      3.5533
    SETDIJ:  cpu time      0.3068: real time      0.3068
    TRIAL :  cpu time      9.2246: real time      9.2294
    CORREC:  cpu time      7.7973: real time      7.8010
    CHARGE:  cpu time      1.5689: real time      1.5701
    --------------------------------------------
      LOOP:  cpu time     22.4796: real time     22.4915

 eigenvalue-minimisations  :     0
 total energy-change (2. order) :-0.1410218E-04  (-0.4463956E-05)
 number of electron      56.0000000 magnetization 
 augmentation part       -0.0053279 magnetization 

 Free energy of the ion-electron system (eV)
  ---------------------------------------------------
  alpha Z        PSCENC =         0.92446154
  Ewald energy   TEWEN  =      5822.64067415
  -Hartree energ DENC   =     -7180.12629073
  -exchange      EXHF   =         0.00000000
  -V(xc)+E(xc)   XCENC  =       167.13216479
  PAW double counting   =     23563.54334155   -23534.41132941
  entropy T*S    EENTRO =        -0.00000000
  eigenvalues    EBANDS =      -671.38469530
  atomic energy  EATOM  =      1671.33363589
  ---------------------------------------------------
  free energy    TOTEN  =      -160.34803751 eV

  energy without entropy =     -160.34803751  energy(sigma->0) =     -160.34803751


--------------------------------------------------------------------------------------------------------




--------------------------------------- Iteration      1(  19)  ---------------------------------------


    POTLOK:  cpu time      3.5513: real time      3.5527
    SETDIJ:  cpu time      0.3041: real time      0.3043
    TRIAL :  cpu time      9.2318: real time      9.2375
    CORREC:  cpu time      7.7983: real time      7.8023
    CHARGE:  cpu time      1.5669: real time      1.5675
    --------------------------------------------
      LOOP:  cpu time     22.4660: real time     22.4945

 eigenvalue-minimisations  :     0
 total energy-change (2. order) :-0.4087935E-05  (-0.1191234E-05)
 number of electron      56.0000000 magnetization 
 augmentation part       -0.0053344 magnetization 

 Free energy of the ion-electron system (eV)
  ---------------------------------------------------
  alpha Z        PSCENC =         0.92446154
  Ewald energy   TEWEN  =      5822.64067415
  -Hartree energ DENC   =     -7180.09203025
  -exchange      EXHF   =         0.00000000
  -V(xc)+E(xc)   XCENC  =       167.13153177
  PAW double counting   =     23564.44647159   -23535.31426700
  entropy T*S    EENTRO =        -0.00000000
  eigenvalues    EBANDS =      -671.41851927
  atomic energy  EATOM  =      1671.33363589
  ---------------------------------------------------
  free energy    TOTEN  =      -160.34804160 eV

  energy without entropy =     -160.34804160  energy(sigma->0) =     -160.34804160


--------------------------------------------------------------------------------------------------------




--------------------------------------- Iteration      1(  20)  ---------------------------------------


    POTLOK:  cpu time      3.5474: real time      3.5494
    SETDIJ:  cpu time      0.3039: real time      0.3040
    TRIAL :  cpu time      9.2331: real time      9.2380
    CORREC:  cpu time      7.7933: real time      7.7965
    CHARGE:  cpu time      1.5668: real time      1.5680
    --------------------------------------------
      LOOP:  cpu time     22.4584: real time     22.4858

 eigenvalue-minimisations  :     0
 total energy-change (2. order) :-0.1112730E-05  (-0.4618210E-06)
 number of electron      56.0000000 magnetization 
 augmentation part       -0.0053411 magnetization 

 Free energy of the ion-electron system (eV)
  ---------------------------------------------------
  alpha Z        PSCENC =         0.92446154
  Ewald energy   TEWEN  =      5822.64067415
  -Hartree energ DENC   =     -7180.10687797
  -exchange      EXHF   =         0.00000000
  -V(xc)+E(xc)   XCENC  =       167.13199703
  PAW double counting   =     23563.82916242   -23534.69704253
  entropy T*S    EENTRO =        -0.00000000
  eigenvalues    EBANDS =      -671.40405324
  atomic energy  EATOM  =      1671.33363589
  ---------------------------------------------------
  free energy    TOTEN  =      -160.34804271 eV

  energy without entropy =     -160.34804271  energy(sigma->0) =     -160.34804271


--------------------------------------------------------------------------------------------------------




--------------------------------------- Iteration      1(  21)  ---------------------------------------


    POTLOK:  cpu time      3.5446: real time      3.5467
    SETDIJ:  cpu time      0.3087: real time      0.3089
    TRIAL :  cpu time      9.2338: real time      9.2388
    CORREC:  cpu time      7.7904: real time      7.7945
    CHARGE:  cpu time      1.5634: real time      1.5642
    --------------------------------------------
      LOOP:  cpu time     22.4709: real time     22.4834

 eigenvalue-minimisations  :     0
 total energy-change (2. order) :-0.4168651E-06  (-0.1225918E-06)
 number of electron      56.0000000 magnetization 
 augmentation part       -0.0053423 magnetization 

 Free energy of the ion-electron system (eV)
  ---------------------------------------------------
  alpha Z        PSCENC =         0.92446154
  Ewald energy   TEWEN  =      5822.64067415
  -Hartree energ DENC   =     -7180.09373910
  -exchange      EXHF   =         0.00000000
  -V(xc)+E(xc)   XCENC  =       167.13157096
  PAW double counting   =     23562.58933109   -23533.45724902
  entropy T*S    EENTRO =        -0.00000000
  eigenvalues    EBANDS =      -671.41672864
  atomic energy  EATOM  =      1671.33363589
  ---------------------------------------------------
  free energy    TOTEN  =      -160.34804313 eV

  energy without entropy =     -160.34804313  energy(sigma->0) =     -160.34804313


--------------------------------------------------------------------------------------------------------




--------------------------------------- Iteration      1(  22)  ---------------------------------------


    POTLOK:  cpu time      3.5427: real time      3.5448
    SETDIJ:  cpu time      0.3118: real time      0.3118
    TRIAL :  cpu time      9.2259: real time      9.2312
    CORREC:  cpu time      7.7935: real time      7.7975
    CHARGE:  cpu time      1.5654: real time      1.5665
    --------------------------------------------
      LOOP:  cpu time     22.4545: real time     22.4835

 eigenvalue-minimisations  :     0
 total energy-change (2. order) :-0.1208173E-06  (-0.5223738E-07)
 number of electron      56.0000000 magnetization 
 augmentation part       -0.0053423 magnetization 

 Free energy of the ion-electron system (eV)
  ---------------------------------------------------
  alpha Z        PSCENC =         0.92446154
  Ewald energy   TEWEN  =      5822.64067415
  -Hartree energ DENC   =     -7180.09884854
  -exchange      EXHF   =         0.00000000
  -V(xc)+E(xc)   XCENC  =       167.13165997
  PAW double counting   =     23562.10572524   -23532.97368417
  entropy T*S    EENTRO =        -0.00000000
  eigenvalues    EBANDS =      -671.41166734
  atomic energy  EATOM  =      1671.33363589
  ---------------------------------------------------
  free energy    TOTEN  =      -160.34804325 eV

  energy without entropy =     -160.34804325  energy(sigma->0) =     -160.34804325


--------------------------------------------------------------------------------------------------------




--------------------------------------- Iteration      1(  23)  ---------------------------------------


    POTLOK:  cpu time      3.5448: real time      3.5464
    SETDIJ:  cpu time      0.3124: real time      0.3126
    TRIAL :  cpu time      9.2355: real time      9.2409
    CORREC:  cpu time      7.7880: real time      7.7925
    EDDIAG:  cpu time      2.3729: real time      2.3740
    CHARGE:  cpu time      1.5692: real time      1.5705
    --------------------------------------------
      LOOP:  cpu time     24.8404: real time     24.8680

 eigenvalue-minimisations  :     0
 total energy-change (2. order) :-0.4906542E-07  (-0.3212341E-07)
 number of electron      56.0000000 magnetization 
 augmentation part       -0.0053422 magnetization 

 Free energy of the ion-electron system (eV)
  ---------------------------------------------------
  alpha Z        PSCENC =         0.92446154
  Ewald energy   TEWEN  =      5822.64067415
  -Hartree energ DENC   =     -7180.10007250
  -exchange      EXHF   =         0.00000000
  -V(xc)+E(xc)   XCENC  =       167.13166471
  PAW double counting   =     23561.98444053   -23532.85241081
  entropy T*S    EENTRO =        -0.00000000
  eigenvalues    EBANDS =      -671.41043681
  atomic energy  EATOM  =      1671.33363589
  ---------------------------------------------------
  free energy    TOTEN  =      -160.34804330 eV

  energy without entropy =     -160.34804330  energy(sigma->0) =     -160.34804330


--------------------------------------------------------------------------------------------------------


  average scaling for gradient   0.9841


 average (electrostatic) potential at core
  the test charge radii are     0.5770  0.4325
  (the norm of the test charge is              1.0000)
       1 -87.7812       2 -87.7813       3 -87.9574       4 -87.9578       5 -87.9577
       6 -87.9578       7 -87.7804       8 -87.7804       9 -87.7805      10 -87.7804
      11 -46.2850      12 -46.2856      13 -46.2847      14 -46.2851      15 -46.2379
      16 -46.2375      17 -46.2375      18 -46.2376      19 -46.2861      20 -46.2857
      21 -46.2856      22 -46.2857      23 -46.2851      24 -46.2854      25 -46.2853
      26 -46.2850



 E-fermi :  -6.6326     XC(G=0):  -0.1930     alpha+bet : -0.1396

 Fermi energy:        -6.6326244687

 k-point     1 :       0.0000    0.0000    0.0000
  band No.  band energies     occupation 
      1     -22.3887      2.00000
      2     -19.6626      2.00000
      3     -19.6625      2.00000
      4     -19.6623      2.00000
      5     -16.9306      2.00000
      6     -16.9298      2.00000
      7     -14.6843      2.00000
      8     -14.6837      2.00000
      9     -14.6837      2.00000
     10     -13.1054      2.00000
     11     -11.3699      2.00000
     12     -11.1815      2.00000
     13     -11.1805      2.00000
     14     -11.1802      2.00000
     15     -10.0103      2.00000
     16     -10.0099      2.00000
     17     -10.0092      2.00000
     18      -9.6001      2.00000
     19      -9.6000      2.00000
     20      -9.5999      2.00000
     21      -7.9674      2.00000
     22      -7.9651      2.00000
     23      -7.8575      2.00000
     24      -7.8573      2.00000
     25      -7.8572      2.00000
     26      -6.6891      2.00000
     27      -6.6888      2.00000
     28      -6.6886      2.00000
     29      -0.0980      0.00000
     30       0.2001      0.00000
     31       0.3529      0.00000
     32       0.3569      0.00000
     33       0.3619      0.00000
     34       0.3953      0.00000
     35       0.3989      0.00000
     36       0.6075      0.00000
     37       0.6556      0.00000
     38       0.6760      0.00000
     39       0.6838      0.00000
     40       0.6964      0.00000
     41       0.7236      0.00000
     42       0.7718      0.00000
     43       0.8729      0.00000
     44       0.9220      0.00000


--------------------------------------------------------------------------------------------------------


 soft charge-density along one line, spin component           1
         0         1         2         3         4         5         6         7         8         9
 total charge-density along one line

 pseudopotential strength for first ion, spin component:           1
 12.628  21.247   0.000  -0.001   0.000   0.000  -0.002   0.000
 21.247  35.749   0.000  -0.002   0.000   0.000  -0.004   0.000
  0.000   0.000  -3.240   0.000  -0.000  -5.804   0.000  -0.001
 -0.001  -0.002   0.000  -3.240   0.000   0.000  -5.804   0.000
  0.000   0.000  -0.000   0.000  -3.236  -0.001   0.000  -5.798
  0.000   0.000  -5.804   0.000  -0.001 -10.374   0.000  -0.001
 -0.002  -0.004   0.000  -5.804   0.000   0.000 -10.374   0.000
  0.000   0.000  -0.001   0.000  -5.798  -0.001   0.000 -10.366
 total augmentation occupancy for first ion, spin component:           1
  9.059  -3.327   0.000  -0.071  -0.000   0.000   0.006   0.000
 -3.327   1.245   0.000   0.006   0.000  -0.000   0.015  -0.000
  0.000   0.000   6.294   0.000  -0.013  -2.116  -0.000   0.001
 -0.071   0.006   0.000   6.451   0.000  -0.000  -2.175  -0.000
 -0.000   0.000  -0.013   0.000   6.402   0.001  -0.000  -2.125
  0.000  -0.000  -2.116  -0.000   0.001   0.723   0.000   0.002
  0.006   0.015  -0.000  -2.175  -0.000   0.000   0.741   0.000
  0.000  -0.000   0.001  -0.000  -2.125   0.002   0.000   0.709


------------------------ aborting loop because EDIFF is reached ----------------------------------------


    FORLOC:  cpu time      0.1379: real time      0.1379
    FORNL :  cpu time      0.1658: real time      0.1659
    FORCOR:  cpu time      3.3583: real time      3.3600
    OFIELD:  cpu time      0.0095: real time      0.0098

 VOLUME and BASIS-vectors are now :
 -----------------------------------------------------------------------------
  energy-cutoff  :     1000.00
  volume of cell :    10648.00
      direct lattice vectors                 reciprocal lattice vectors
    22.000000000  0.000000000  0.000000000     0.045454545  0.000000000  0.000000000
     0.000000000 22.000000000  0.000000000     0.000000000  0.045454545  0.000000000
     0.000000000  0.000000000 22.000000000     0.000000000  0.000000000  0.045454545

  length of vectors
    22.000000000 22.000000000 22.000000000     0.045454545  0.045454545  0.045454545


 FORCES acting on ions:
    Electron-Ion                     Ewald-Force                    Non-Local-Force
 -----------------------------------------------------------------------------------------------
   -.513E-01 -.694E-02 0.263E+03   0.513E-01 0.727E-02 -.263E+03   0.982E-04 -.120E-02 0.677E-01
   0.307E-01 -.659E-03 -.263E+03   -.311E-01 0.413E-03 0.263E+03   0.132E-02 0.112E-02 -.714E-01
   -.257E+02 -.195E+03 0.139E+03   0.258E+02 0.196E+03 -.140E+03   -.101E+00 -.757E+00 0.543E+00
   0.195E+03 -.257E+02 -.139E+03   -.196E+03 0.258E+02 0.140E+03   0.756E+00 -.102E+00 -.543E+00
   0.257E+02 0.195E+03 0.139E+03   -.258E+02 -.196E+03 -.140E+03   0.100E+00 0.756E+00 0.543E+00
   -.195E+03 0.257E+02 -.139E+03   0.196E+03 -.258E+02 0.140E+03   -.755E+00 0.102E+00 -.545E+00
   0.160E+03 -.209E+03 -.121E+00   -.160E+03 0.209E+03 0.124E+00   0.425E-01 -.510E-01 -.450E-02
   0.209E+03 0.160E+03 0.162E+00   -.209E+03 -.160E+03 -.165E+00   0.501E-01 0.417E-01 0.678E-02
   -.160E+03 0.209E+03 -.143E+00   0.160E+03 -.209E+03 0.146E+00   -.407E-01 0.508E-01 -.532E-02
   -.209E+03 -.160E+03 0.859E-01   0.209E+03 0.160E+03 -.892E-01   -.506E-01 -.395E-01 0.319E-02
   0.555E+02 -.733E+01 0.835E+02   -.597E+02 0.789E+01 -.867E+02   0.442E+01 -.582E+00 0.336E+01
   0.734E+01 0.555E+02 -.835E+02   -.790E+01 -.597E+02 0.867E+02   0.583E+00 0.442E+01 -.336E+01
   -.555E+02 0.733E+01 0.835E+02   0.597E+02 -.789E+01 -.867E+02   -.442E+01 0.583E+00 0.336E+01
   -.733E+01 -.555E+02 -.835E+02   0.789E+01 0.597E+02 0.867E+02   -.583E+00 -.442E+01 -.336E+01
   -.112E+02 -.844E+02 0.602E+02   0.117E+02 0.888E+02 -.633E+02   -.602E+00 -.456E+01 0.325E+01
   0.844E+02 -.112E+02 -.602E+02   -.888E+02 0.117E+02 0.633E+02   0.456E+01 -.602E+00 -.325E+01
   0.112E+02 0.844E+02 0.602E+02   -.117E+02 -.888E+02 -.633E+02   0.603E+00 0.456E+01 0.325E+01
   -.844E+02 0.112E+02 -.602E+02   0.888E+02 -.117E+02 0.633E+02   -.456E+01 0.602E+00 -.325E+01
   0.822E+02 -.424E+02 0.395E+02   -.866E+02 0.431E+02 -.425E+02   0.455E+01 -.763E+00 0.315E+01
   0.424E+02 0.822E+02 -.394E+02   -.431E+02 -.866E+02 0.425E+02   0.765E+00 0.455E+01 -.315E+01
   -.822E+02 0.424E+02 0.394E+02   0.866E+02 -.431E+02 -.425E+02   -.455E+01 0.765E+00 0.315E+01
   -.424E+02 -.822E+02 -.395E+02   0.431E+02 0.866E+02 0.425E+02   -.764E+00 -.455E+01 -.315E+01
   0.193E+02 -.903E+02 -.397E+02   -.188E+02 0.947E+02 0.427E+02   -.471E+00 -.458E+01 -.316E+01
   0.903E+02 0.192E+02 0.397E+02   -.947E+02 -.188E+02 -.427E+02   0.458E+01 -.472E+00 0.316E+01
   -.192E+02 0.903E+02 -.397E+02   0.188E+02 -.947E+02 0.427E+02   0.471E+00 0.458E+01 -.316E+01
   -.903E+02 -.193E+02 0.397E+02   0.947E+02 0.188E+02 -.427E+02   -.458E+01 0.469E+00 0.316E+01
 -----------------------------------------------------------------------------------------------
   -.376E-02 -.146E-02 0.164E-03   0.242E-12 0.782E-13 0.171E-12   0.350E-02 0.127E-02 -.108E-02


 POSITION                                       TOTAL-FORCE (eV/Angst)
 -----------------------------------------------------------------------------------
     11.00033     11.00006      9.22329        -0.000003     -0.000843      0.073399
     10.99981     10.99999     12.77707         0.000918      0.000841     -0.075919
     11.16530     12.24794     10.10991        -0.004269     -0.039839      0.032251
      9.75197     11.16532     11.89040         0.039213     -0.005196     -0.032308
     10.83484      9.75212     10.10977         0.004287      0.038861      0.031158
     12.24780     10.83463     11.89061        -0.038213      0.005116     -0.032810
      9.92053     12.41087     11.00134         0.039438     -0.057178     -0.002042
      9.58918      9.92069     10.99865         0.056258      0.038606      0.004548
     12.07938      9.58908     11.00150        -0.037825      0.056661     -0.003184
     12.41075     12.07938     10.99913        -0.056472     -0.036699      0.000750
     10.12250     11.11569      8.56868         0.170060     -0.021284      0.143375
     10.88401     10.12194     13.43126         0.021260      0.169467     -0.141542
     11.87861     10.88437      8.56922        -0.171336      0.021826      0.143965
     11.11564     11.87808     13.43132        -0.022141     -0.171039     -0.142928
     11.28308     13.13899      9.47466        -0.022991     -0.183635      0.130949
      8.86077     11.28300     12.52556         0.185508     -0.023615     -0.131486
     10.71699      8.86110      9.47442         0.024088      0.184661      0.131468
     13.13892     10.71682     12.52582        -0.185277      0.023840     -0.130477
      9.02510     12.55174     10.37645         0.179828     -0.039609      0.117191
      9.44800      9.02511     11.62331         0.040460      0.180699     -0.117084
     12.97502      9.44796     10.37686        -0.181459      0.041044      0.117661
     12.55165     12.97493     11.62391        -0.040372     -0.181211     -0.116835
     10.02212     13.31003     11.62874        -0.011241     -0.185685     -0.122796
      8.69013     10.02241     10.37117         0.185144     -0.010749      0.121842
     11.97774      8.68997     11.62893         0.010131      0.185242     -0.122312
     13.30987     11.97806     10.37165        -0.184996      0.009717      0.123165
 -----------------------------------------------------------------------------------
    total drift:                               -0.000266     -0.000189     -0.000918


--------------------------------------------------------------------------------------------------------



  FREE ENERGIE OF THE ION-ELECTRON SYSTEM (eV)
  ---------------------------------------------------
  free  energy   TOTEN  =      -160.34804330 eV

  energy  without entropy=     -160.34804330  energy(sigma->0) =     -160.34804330



--------------------------------------------------------------------------------------------------------


    POTLOK:  cpu time      3.8617: real time      3.8636


--------------------------------------------------------------------------------------------------------


 stress matrix after NEB project (eV)
      0.00000      0.00000      0.00000
      0.00000      0.00000      0.00000
      0.00000      0.00000      0.00000
  FORCES: max atom, RMS     0.228603    0.179483
  FORCE total and by dimension    0.915189    0.185685
  Stress total and by dimension    0.000000    0.000000
     LOOP+:  cpu time    476.3596: real time    476.9001
    4ORBIT:  cpu time      0.0000: real time      0.0000

 total amount of memory used by VASP MPI-rank0   175250. kBytes
=======================================================================

   base      :      30000. kBytes
   nonl-proj :       6491. kBytes
   fftplans  :      40084. kBytes
   grid      :      92374. kBytes
   one-center:          1. kBytes
   wavefun   :       6300. kBytes

  
  
 General timing and accounting informations for this job:
 ========================================================
  
                  Total CPU time used (sec):      500.048
                            User time (sec):      452.493
                          System time (sec):       47.555
                         Elapsed time (sec):      503.533
  
                   Maximum memory used (kb):      432140.
                   Average memory used (kb):          N/A
  
                          Minor page faults:       928353
                          Major page faults:         1140
                 Voluntary context switches:         3796
