 vasp.6.4.1 05Apr23 (build Jun  6 2023 14:36:51) complex                         
 executed on        HPECrayEX_GCC date 2024.08.20  14:56:14
 running  256 mpi-ranks, with    1 threads/rank, on    2 nodes
 distrk:  each k-point on  128 cores,    2 groups
 distr:  one band on NCORE=  32 cores,    4 groups


--------------------------------------------------------------------------------------------------------


 INCAR:
   ALGO = Conjugate
   KPAR = 2
   NCORE = 32
   ISMEAR = 0
   SIGMA = 0.01
   PREC = Accurate
   EDIFF = 1E-7
   ENCUT = 1000
   ISIF = 0
   METAGGA = R2SCAN
   LASPH = .TRUE.
   SYMPREC = 1E-7
   LWAVE = .FALSE.
   LCHARG = .FALSE.
   LWAVE = .FALSE.
   LCHARGE = .FALSE.

 POTCAR:    PAW_PBE C_h 06Feb2004                 
 POTCAR:    PAW_PBE H_h 06Feb2004                 
 POTCAR:    PAW_PBE N_h 06Feb2004                 
 POTCAR:    PAW_PBE O_h 06Feb2004                 
 POTCAR:    PAW_PBE C_h 06Feb2004                 
   VRHFIN =C: s2p2                                                                                  
   LEXCH  = PE                                                                                      
   EATOM  =   147.1560 eV,   10.8157 Ry                                                             
                                                                                                    
   TITEL  = PAW_PBE C_h 06Feb2004                                                                   
   LULTRA =        F    use ultrasoft PP ?                                                          
   IUNSCR =        1    unscreen: 0-lin 1-nonlin 2-no                                               
   RPACOR =    0.800    partial core radius                                                         
   POMASS =   12.011; ZVAL   =    4.000    mass and valenz                                          
   RCORE  =    1.100    outmost cutoff radius                                                       
   RWIGS  =    1.630; RWIGS  =    0.863    wigner-seitz radius (au A)                               
   ENMAX  =  700.000; ENMIN  =  500.000 eV                                                          
   ICORE  =        2    local potential                                                             
   LCOR   =        T    correct aug charges                                                         
   LPAW   =        T    paw PP                                                                      
   EAUG   =  946.768                                                                                
   DEXC   =    0.000                                                                                
   RMAX   =    1.128    core radius for proj-oper                                                   
   RAUG   =    1.300    factor for augmentation sphere                                              
   RDEP   =    1.162    radius for radial grids                                                     
   RDEPT  =    1.088    core radius for aug-charge                                                  
                                                                                                    
   Atomic configuration                                                                             
    4 entries                                                                                       
     n  l   j            E        occ.                                                              
     1  0  0.50      -273.3789   2.0000                                                             
     2  0  0.50       -13.7508   2.0000                                                             
     2  1  0.50        -5.2854   2.0000                                                             
     3  2  1.50        -5.4423   0.0000                                                             
   Description                                                                                      
     l       E           TYP  RCUT    TYP  RCUT                                                     
     0    -13.7508458     23  1.100                                                                 
     0     -8.2022199     23  1.100                                                                 
     1     -5.2854383     23  1.100                                                                 
     1      1.1560700     23  1.100                                                                 
     2     -5.4423304      7  1.100                                                                 
  local pseudopotential read in
  partial core-charges read in
  partial kinetic energy density read in
  atomic valenz-charges read in
  non local Contribution for L=           0  read in
    real space projection operators read in
  non local Contribution for L=           0  read in
    real space projection operators read in
  non local Contribution for L=           1  read in
    real space projection operators read in
  non local Contribution for L=           1  read in
    real space projection operators read in
    PAW grid and wavefunctions read in

   number of l-projection  operators is LMAX  =           4
   number of lm-projection operators is LMMAX =           8

 POTCAR:    PAW_PBE H_h 06Feb2004                 
   VRHFIN =H: ultrasoft test                                                                        
   LEXCH  = PE                                                                                      
   EATOM  =    12.4884 eV,    0.9179 Ry                                                             
                                                                                                    
   TITEL  = PAW_PBE H_h 06Feb2004                                                                   
   LULTRA =        F    use ultrasoft PP ?                                                          
   IUNSCR =        0    unscreen: 0-lin 1-nonlin 2-no                                               
   RPACOR =    0.000    partial core radius                                                         
   POMASS =    1.000; ZVAL   =    1.000    mass and valenz                                          
   RCORE  =    0.800    outmost cutoff radius                                                       
   RWIGS  =    0.700; RWIGS  =    0.370    wigner-seitz radius (au A)                               
   ENMAX  =  700.000; ENMIN  =  350.000 eV                                                          
   RCLOC  =    0.701    cutoff for local pot                                                        
   LCOR   =        T    correct aug charges                                                         
   LPAW   =        T    paw PP                                                                      
   EAUG   = 1000.000                                                                                
   RMAX   =    0.819    core radius for proj-oper                                                   
   RAUG   =    1.000    factor for augmentation sphere                                              
   RDEP   =    0.817    radius for radial grids                                                     
   RDEPT  =    0.817    core radius for aug-charge                                                  
                                                                                                    
   Atomic configuration                                                                             
    2 entries                                                                                       
     n  l   j            E        occ.                                                              
     1  0  0.50        -6.4927   1.0000                                                             
     2  1  0.50        -3.4015   0.0000                                                             
   Description                                                                                      
     l       E           TYP  RCUT    TYP  RCUT                                                     
     0     -6.4927493     23  0.800                                                                 
     0      6.8029130     23  0.800                                                                 
     1     -6.8029130     23  0.800                                                                 
  local pseudopotential read in
  atomic valenz-charges read in
  non local Contribution for L=           0  read in
    real space projection operators read in
  non local Contribution for L=           0  read in
    real space projection operators read in
  non local Contribution for L=           1  read in
    real space projection operators read in
    PAW grid and wavefunctions read in

   number of l-projection  operators is LMAX  =           3
   number of lm-projection operators is LMMAX =           5

 POTCAR:    PAW_PBE N_h 06Feb2004                 
   VRHFIN =N: s2p3                                                                                  
   LEXCH  = PE                                                                                      
   EATOM  =   264.5486 eV,   19.4438 Ry                                                             
                                                                                                    
   TITEL  = PAW_PBE N_h 06Feb2004                                                                   
   LULTRA =        F    use ultrasoft PP ?                                                          
   IUNSCR =        1    unscreen: 0-lin 1-nonlin 2-no                                               
   RPACOR =    0.800    partial core radius                                                         
   POMASS =   14.001; ZVAL   =    5.000    mass and valenz                                          
   RCORE  =    1.100    outmost cutoff radius                                                       
   RWIGS  =    1.480; RWIGS  =    0.783    wigner-seitz radius (au A)                               
   ENMAX  =  700.000; ENMIN  =  500.000 eV                                                          
   ICORE  =        2    local potential                                                             
   LCOR   =        T    correct aug charges                                                         
   LPAW   =        T    paw PP                                                                      
   EAUG   =  904.640                                                                                
   DEXC   =    0.000                                                                                
   RMAX   =    1.127    core radius for proj-oper                                                   
   RAUG   =    1.300    factor for augmentation sphere                                              
   RDEP   =    1.115    radius for radial grids                                                     
   RDEPT  =    1.106    core radius for aug-charge                                                  
                                                                                                    
   Atomic configuration                                                                             
    4 entries                                                                                       
     n  l   j            E        occ.                                                              
     1  0  0.50      -384.7179   2.0000                                                             
     2  0  0.50       -18.5828   2.0000                                                             
     2  1  0.50        -7.0898   3.0000                                                             
     3  2  1.50        -6.8029   0.0000                                                             
   Description                                                                                      
     l       E           TYP  RCUT    TYP  RCUT                                                     
     0    -18.5828117     23  1.100                                                                 
     0    -15.0750597     23  1.100                                                                 
     1     -7.0897851     23  1.100                                                                 
     1     -1.9663412     23  1.100                                                                 
     2     -6.8029130      7  1.100                                                                 
  local pseudopotential read in
  partial core-charges read in
  partial kinetic energy density read in
  kinetic energy density of atom read in
  atomic valenz-charges read in
  non local Contribution for L=           0  read in
    real space projection operators read in
  non local Contribution for L=           0  read in
    real space projection operators read in
  non local Contribution for L=           1  read in
    real space projection operators read in
  non local Contribution for L=           1  read in
    real space projection operators read in
    PAW grid and wavefunctions read in

   number of l-projection  operators is LMAX  =           4
   number of lm-projection operators is LMMAX =           8

 POTCAR:    PAW_PBE O_h 06Feb2004                 
   VRHFIN =O: s2p4                                                                                  
   LEXCH  = PE                                                                                      
   EATOM  =   432.3788 eV,   31.7789 Ry                                                             
                                                                                                    
   TITEL  = PAW_PBE O_h 06Feb2004                                                                   
   LULTRA =        F    use ultrasoft PP ?                                                          
   IUNSCR =        1    unscreen: 0-lin 1-nonlin 2-no                                               
   RPACOR =    0.800    partial core radius                                                         
   POMASS =   16.000; ZVAL   =    6.000    mass and valenz                                          
   RCORE  =    1.100    outmost cutoff radius                                                       
   RWIGS  =    1.400; RWIGS  =    0.741    wigner-seitz radius (au A)                               
   ENMAX  =  700.000; ENMIN  =  500.000 eV                                                          
   ICORE  =        2    local potential                                                             
   LCOR   =        T    correct aug charges                                                         
   LPAW   =        T    paw PP                                                                      
   EAUG   =  888.804                                                                                
   DEXC   =    0.000                                                                                
   RMAX   =    1.128    core radius for proj-oper                                                   
   RAUG   =    1.300    factor for augmentation sphere                                              
   RDEP   =    1.125    radius for radial grids                                                     
   RDEPT  =    1.088    core radius for aug-charge                                                  
                                                                                                    
   Atomic configuration                                                                             
    4 entries                                                                                       
     n  l   j            E        occ.                                                              
     1  0  0.50      -514.6923   2.0000                                                             
     2  0  0.50       -23.9615   2.0000                                                             
     2  1  0.50        -9.0305   4.0000                                                             
     3  2  1.50        -9.5241   0.0000                                                             
   Description                                                                                      
     l       E           TYP  RCUT    TYP  RCUT                                                     
     0    -23.9615319     23  1.100                                                                 
     0    -25.3221145     23  1.100                                                                 
     1     -9.0304911     23  1.100                                                                 
     1     -5.4802209     23  1.100                                                                 
     2     -9.5240782      7  1.100                                                                 
  local pseudopotential read in
  partial core-charges read in
  partial kinetic energy density read in
  atomic valenz-charges read in
  non local Contribution for L=           0  read in
    real space projection operators read in
  non local Contribution for L=           0  read in
    real space projection operators read in
  non local Contribution for L=           1  read in
    real space projection operators read in
  non local Contribution for L=           1  read in
    real space projection operators read in
    PAW grid and wavefunctions read in

   number of l-projection  operators is LMAX  =           4
   number of lm-projection operators is LMMAX =           8

 -----------------------------------------------------------------------------
|                                                                             |
|               ----> ADVICE to this user running VASP <----                  |
|                                                                             |
|     You have a (more or less) 'large supercell' and for larger cells it     |
|     might be more efficient to use real-space projection operators.         |
|     Therefore, try LREAL= Auto in the INCAR file.                           |
|     Mind: For very accurate calculation, you might also keep the            |
|     reciprocal projection scheme (i.e. LREAL=.FALSE.).                      |
|                                                                             |
 -----------------------------------------------------------------------------

  PAW_PBE C_h 06Feb2004                 :
 energy of atom  1       EATOM= -147.1560
 kinetic energy error for atom=    0.0031 (will be added to EATOM!!)
  PAW_PBE H_h 06Feb2004                 :
 energy of atom  2       EATOM=  -12.4884
 kinetic energy error for atom=    0.0006 (will be added to EATOM!!)
  PAW_PBE N_h 06Feb2004                 :
 energy of atom  3       EATOM= -264.5486
 kinetic energy error for atom=    0.0081 (will be added to EATOM!!)
  PAW_PBE O_h 06Feb2004                 :
 energy of atom  4       EATOM= -432.3788
 kinetic energy error for atom=    0.0171 (will be added to EATOM!!)


 POSCAR:  C  H  N  O
  positions in cartesian coordinates
  No initial velocities read in

 METAGGA = R2SCAN                                      LMAXTAU =  6    LMIXTAU =  F

 exchange correlation table for  LEXCH =        8
   RHO(1)=    0.500       N(1)  =     2000
   RHO(2)=  100.500       N(2)  =     4000

 VTST: version 4.1, (05/19/21)

 CHAIN: initializing optimizer
 
 OPT: Using VASP Dynamics algorithm
 CHAIN: Read ICHAIN            0

 POSCAR:  C  H  N  O
  positions in cartesian coordinates
  No initial velocities read in



--------------------------------------------------------------------------------------------------------


 ion  position               nearest neighbor table
   1  0.984  0.154  0.325-  49 1.26  41 1.36  37 1.39
   2  0.516  0.846  0.825-  50 1.26  42 1.36  38 1.39
   3  0.016  0.654  0.175-  51 1.26  43 1.36  39 1.39
   4  0.484  0.346  0.675-  52 1.26  44 1.36  40 1.39
   5  0.131  0.264  0.550-  45 1.34  41 1.35   9 1.43
   6  0.369  0.736  0.050-  46 1.34  42 1.35  10 1.43
   7  0.869  0.764  0.950-  47 1.34  43 1.35  11 1.43
   8  0.631  0.236  0.450-  48 1.34  44 1.35  12 1.43
   9  0.171  0.133  0.673-  29 1.08  13 1.36   5 1.43
  10  0.329  0.867  0.173-  30 1.08  14 1.36   6 1.43
  11  0.829  0.633  0.827-  31 1.08  15 1.36   7 1.43
  12  0.671  0.367  0.327-  32 1.08  16 1.36   8 1.43
  13  0.113  0.016  0.612-  33 1.09  37 1.36   9 1.36
  14  0.387  0.984  0.112-  34 1.09  38 1.36  10 1.36
  15  0.887  0.516  0.888-  35 1.09  39 1.36  11 1.36
  16  0.613  0.484  0.388-  36 1.09  40 1.36  12 1.36
  17  0.989  0.932  0.346-  37 1.05
  18  0.511  0.068  0.846-  38 1.05
  19  0.011  0.432  0.154-  39 1.05
  20  0.489  0.568  0.654-  40 1.05
  21  0.154  0.478  0.518-  45 1.03
  22  0.346  0.522  0.018-  46 1.03
  23  0.846  0.978  0.982-  47 1.03
  24  0.654  0.022  0.482-  48 1.03
  25  0.258  0.377  0.686-  45 1.02
  26  0.242  0.623  0.186-  46 1.02
  27  0.742  0.877  0.814-  47 1.02
  28  0.758  0.123  0.314-  48 1.02
  29  0.244  0.129  0.810-   9 1.08
  30  0.256  0.871  0.310-  10 1.08
  31  0.756  0.629  0.690-  11 1.08
  32  0.744  0.371  0.190-  12 1.08
  33  0.135  0.910  0.692-  13 1.09
  34  0.365  0.090  0.192-  14 1.09
  35  0.865  0.410  0.808-  15 1.09
  36  0.635  0.590  0.308-  16 1.09
  37  0.022  0.026  0.441-  17 1.05  13 1.36   1 1.39
  38  0.478  0.974  0.941-  18 1.05  14 1.36   2 1.39
  39  0.978  0.526  0.059-  19 1.05  15 1.36   3 1.39
  40  0.522  0.474  0.559-  20 1.05  16 1.36   4 1.39
  41  0.040  0.272  0.386-   5 1.35   1 1.36
  42  0.460  0.728  0.886-   6 1.35   2 1.36
  43  0.960  0.772  0.114-   7 1.35   3 1.36
  44  0.540  0.228  0.614-   8 1.35   4 1.36
  45  0.184  0.383  0.600-  25 1.02  21 1.03   5 1.34
  46  0.316  0.617  0.100-  26 1.02  22 1.03   6 1.34
  47  0.816  0.883  0.900-  27 1.02  23 1.03   7 1.34
  48  0.684  0.117  0.400-  28 1.02  24 1.03   8 1.34
  49  0.900  0.157  0.162-   1 1.26
  50  0.600  0.843  0.662-   2 1.26
  51  0.100  0.657  0.338-   3 1.26
  52  0.400  0.343  0.838-   4 1.26

  LATTYP: Found a simple orthorhombic cell.
 ALAT       =     3.8140000000
 B/A-ratio  =     2.4897745149
 C/A-ratio  =     3.4200314630
  
  Lattice vectors:
  
 A1 = (   0.0000000000,   0.0000000000,  -3.8140000000)
 A2 = (   0.0000000000,   9.4960000000,   0.0000000000)
 A3 = (  13.0440000000,   0.0000000000,   0.0000000000)


Analysis of symmetry for initial positions (statically):
=====================================================================
 Subroutine PRICEL returns:
 Original cell was already a primitive cell.
 

 Routine SETGRP: Setting up the symmetry group for a 
 simple orthorhombic supercell.


 Subroutine GETGRP returns: Found  1 space group operations
 (whereof  1 operations were pure point group operations)
 out of a pool of  8 trial point group operations.


The static configuration has the point symmetry C_1 .


Analysis of symmetry for dynamics (positions and initial velocities):
=====================================================================
 Subroutine PRICEL returns:
 Original cell was already a primitive cell.
 

 Routine SETGRP: Setting up the symmetry group for a 
 simple orthorhombic supercell.


 Subroutine GETGRP returns: Found  1 space group operations
 (whereof  1 operations were pure point group operations)
 out of a pool of  8 trial point group operations.


The dynamic configuration has the point symmetry C_1 .


 Subroutine INISYM returns: Found  1 space group operations
 (whereof  1 operations are pure point group operations),
 and found     1 'primitive' translations


----------------------------------------------------------------------------------------

                                     Primitive cell                                     

  volume of cell :     472.4243

  direct lattice vectors                    reciprocal lattice vectors
    13.044000000  0.000000000  0.000000000     0.076663600  0.000000000  0.000000000
     0.000000000  9.496000000  0.000000000     0.000000000  0.105307498  0.000000000
     0.000000000  0.000000000  3.814000000     0.000000000  0.000000000  0.262191924

  length of vectors
    13.044000000  9.496000000  3.814000000     0.076663600  0.105307498  0.262191924

  position of ions in fractional coordinates (direct lattice)
     0.983676402  0.154145791  0.324579529
     0.516323865  0.845852329  0.824579509
     0.016323080  0.654147019  0.175424953
     0.483678521  0.345852244  0.675424567
     0.130748206  0.263992227  0.550443598
     0.369250980  0.736009151  0.050440365
     0.869251742  0.763988598  0.949559299
     0.630750938  0.236009374  0.449560667
     0.170839958  0.132852545  0.673087278
     0.329160580  0.867147547  0.173088262
     0.829161293  0.632851093  0.826913560
     0.670840586  0.367147846  0.326915498
     0.113238953  0.015925081  0.611815714
     0.386761117  0.984074919  0.111816481
     0.886760642  0.515924186  0.888183325
     0.613240019  0.484075173  0.388188014
     0.989341936  0.932131625  0.345840050
     0.510658808  0.067866602  0.845841071
     0.010658064  0.432133190  0.154161322
     0.489342656  0.567866632  0.654162827
     0.154493646  0.477757344  0.517949666
     0.345505786  0.522244577  0.017947583
     0.845505673  0.977753104  0.982052417
     0.654496648  0.022246357  0.482053809
     0.258393829  0.376890470  0.685559635
     0.241605051  0.623109754  0.185558125
     0.741605081  0.876887398  0.814442623
     0.758397988  0.123112132  0.314443873
     0.243625035  0.128637538  0.809779717
     0.256375336  0.871363320  0.309780140
     0.756376145  0.628635813  0.690219412
     0.743626153  0.371363769  0.190220910
     0.135000959  0.909894070  0.692319390
     0.365000678  0.090106066  0.192318415
     0.865001205  0.409892014  0.807681796
     0.635000525  0.590107079  0.307683780
     0.022337554  0.025680890  0.440729304
     0.477663641  0.974319670  0.940725121
     0.977664090  0.525678503  0.059278179
     0.522336899  0.474319803  0.559278494
     0.039510088  0.272497350  0.386044197
     0.460489051  0.727502488  0.886040923
     0.960489383  0.772496010  0.113961013
     0.539512792  0.227502772  0.613963585
     0.184168764  0.383137378  0.600252224
     0.315829073  0.616863701  0.100247370
     0.815828668  0.883134832  0.899748520
     0.684172902  0.116864538  0.399753557
     0.899630335  0.156552925  0.162017031
     0.600370825  0.843445277  0.662021322
     0.100370043  0.656553309  0.337986290
     0.399630266  0.343444327  0.837983551

  ion indices of the primitive-cell ions
   primitive index   ion index
                 1           1
                 2           2
                 3           3
                 4           4
                 5           5
                 6           6
                 7           7
                 8           8
                 9           9
                10          10
                11          11
                12          12
                13          13
                14          14
                15          15
                16          16
                17          17
                18          18
                19          19
                20          20
                21          21
                22          22
                23          23
                24          24
                25          25
                26          26
                27          27
                28          28
                29          29
                30          30
                31          31
                32          32
                33          33
                34          34
                35          35
                36          36
                37          37
                38          38
                39          39
                40          40
                41          41
                42          42
                43          43
                44          44
                45          45
                46          46
                47          47
                48          48
                49          49
                50          50
                51          51
                52          52

----------------------------------------------------------------------------------------



 KPOINTS: auto                                    

Automatic generation of k-mesh.
 Grid dimensions read from file:
 generate k-points for:    2    3    7

 Generating k-lattice:

  Cartesian coordinates                     Fractional coordinates (reciprocal lattice)
     0.038331800  0.000000000  0.000000000     0.500000000  0.000000000  0.000000000
     0.000000000  0.035102499  0.000000000     0.000000000  0.333333333  0.000000000
     0.000000000  0.000000000  0.037455989     0.000000000  0.000000000  0.142857143

  Length of vectors
     0.038331800  0.035102499  0.037455989

  Shift w.r.t. Gamma in fractional coordinates (k-lattice)
     0.000000000  0.000000000  0.000000000

 
 Subroutine IBZKPT returns following result:
 ===========================================
 
 Found     22 irreducible k-points:
 
 Following reciprocal coordinates:
            Coordinates               Weight
  0.000000  0.000000  0.000000      1.000000
  0.500000  0.000000  0.000000      1.000000
  0.000000  0.333333  0.000000      2.000000
  0.500000  0.333333  0.000000      2.000000
  0.000000  0.000000  0.142857      2.000000
  0.500000  0.000000  0.142857      2.000000
  0.000000  0.333333  0.142857      2.000000
  0.000000 -0.333333  0.142857      2.000000
  0.500000  0.333333  0.142857      2.000000
  0.500000 -0.333333  0.142857      2.000000
  0.000000  0.000000  0.285714      2.000000
  0.500000  0.000000  0.285714      2.000000
  0.000000  0.333333  0.285714      2.000000
  0.000000 -0.333333  0.285714      2.000000
  0.500000  0.333333  0.285714      2.000000
  0.500000 -0.333333  0.285714      2.000000
  0.000000  0.000000  0.428571      2.000000
  0.500000  0.000000  0.428571      2.000000
  0.000000  0.333333  0.428571      2.000000
  0.000000 -0.333333  0.428571      2.000000
  0.500000  0.333333  0.428571      2.000000
  0.500000 -0.333333  0.428571      2.000000
 
 Following cartesian coordinates:
            Coordinates               Weight
  0.000000  0.000000  0.000000      1.000000
  0.038332  0.000000  0.000000      1.000000
  0.000000  0.035102  0.000000      2.000000
  0.038332  0.035102  0.000000      2.000000
  0.000000  0.000000  0.037456      2.000000
  0.038332  0.000000  0.037456      2.000000
  0.000000  0.035102  0.037456      2.000000
  0.000000 -0.035102  0.037456      2.000000
  0.038332  0.035102  0.037456      2.000000
  0.038332 -0.035102  0.037456      2.000000
  0.000000  0.000000  0.074912      2.000000
  0.038332  0.000000  0.074912      2.000000
  0.000000  0.035102  0.074912      2.000000
  0.000000 -0.035102  0.074912      2.000000
  0.038332  0.035102  0.074912      2.000000
  0.038332 -0.035102  0.074912      2.000000
  0.000000  0.000000  0.112368      2.000000
  0.038332  0.000000  0.112368      2.000000
  0.000000  0.035102  0.112368      2.000000
  0.000000 -0.035102  0.112368      2.000000
  0.038332  0.035102  0.112368      2.000000
  0.038332 -0.035102  0.112368      2.000000
 


--------------------------------------------------------------------------------------------------------




 Dimension of arrays:
   k-points           NKPTS =     22   k-points in BZ     NKDIM =     22   number of bands    NBANDS=    112
   number of dos      NEDOS =    301   number of ions     NIONS =     52
   non local maximal  LDIM  =      4   non local SUM 2l+1 LMDIM =      8
   total plane-waves  NPLWV = 548800
   max r-space proj   IRMAX =      1   max aug-charges    IRDMAX=   8671
   dimension x,y,z NGX =   140 NGY =   98 NGZ =   40
   dimension x,y,z NGXF=   280 NGYF=  196 NGZF=   80
   support grid    NGXF=   280 NGYF=  196 NGZF=   80
   ions per type =              16  20  12   4
   NGX,Y,Z   is equivalent  to a cutoff of  17.84, 17.16, 17.44 a.u.
   NGXF,Y,Z  is equivalent  to a cutoff of  35.69, 34.31, 34.87 a.u.

 SYSTEM =  unknown system                          
 POSCAR =   C  H  N  O                             

 Startparameter for this run:
   NWRITE =      2    write-flag & timer
   PREC   = accura    normal or accurate (medium, high low for compatibility)
   ISTART =      0    job   : 0-new  1-cont  2-samecut
   ICHARG =      2    charge: 1-file 2-atom 10-const
   ISPIN  =      1    spin polarized calculation?
   LNONCOLLINEAR =      F non collinear calculations
   LSORBIT =      F    spin-orbit coupling
   INIWAV =      1    electr: 0-lowe 1-rand  2-diag
   LASPH  =      T    aspherical Exc in radial PAW
 Electronic Relaxation 1
   ENCUT  = 1000.0 eV  73.50 Ry    8.57 a.u.  33.63 24.48  9.83*2*pi/ulx,y,z
   ENINI  = 1000.0     initial cutoff
   ENAUG  = 1000.0 eV  augmentation charge cutoff
   NELM   =     60;   NELMIN=  2; NELMDL= -5     # of ELM steps 
   EDIFF  = 0.1E-06   stopping-criterion for ELM
   LREAL  =      F    real-space projection
   NLSPLINE    = F    spline interpolate recip. space projectors
   LCOMPAT=      F    compatible to vasp.4.4
   GGA_COMPAT  = T    GGA compatible to vasp.4.4-vasp.4.6
   LMAXPAW     = -100 max onsite density
   LMAXMIX     =    2 max onsite mixed and CHGCAR
   VOSKOWN=      0    Vosko Wilk Nusair interpolation
   ROPT   =    0.00000   0.00000   0.00000   0.00000
 Ionic relaxation
   EDIFFG = 0.1E-05   stopping-criterion for IOM
   NSW    =      0    number of steps for IOM
   NBLOCK =      1;   KBLOCK =      1    inner block; outer block 
   IBRION =     -1    ionic relax: 0-MD 1-quasi-New 2-CG
   NFREE  =      0    steps in history (QN), initial steepest desc. (CG)
   ISIF   =      0    stress and relaxation
   IWAVPR =     10    prediction:  0-non 1-charg 2-wave 3-comb
   ISYM   =      2    0-nonsym 1-usesym 2-fastsym
   LCORR  =      T    Harris-Foulkes like correction to forces

   POTIM  = 0.5000    time-step for ionic-motion
   TEIN   =    0.0    initial temperature
   TEBEG  =    0.0;   TEEND  =   0.0 temperature during run
   SMASS  =  -3.00    Nose mass-parameter (am)
   estimated Nose-frequenzy (Omega)   =  0.10E-29 period in steps = 0.13E+47 mass=  -0.389E-26a.u.
   SCALEE = 1.0000    scale energy and forces
   NPACO  =    256;   APACO  = 10.0  distance and # of slots for P.C.
   PSTRESS=    0.0 pullay stress

  Mass of Ions in am
   POMASS =  12.01  1.00 14.00 16.00
  Ionic Valenz
   ZVAL   =   4.00  1.00  5.00  6.00
  Atomic Wigner-Seitz radii
   RWIGS  =  -1.00 -1.00 -1.00 -1.00
  virtual crystal weights 
   VCA    =   1.00  1.00  1.00  1.00
   NELECT =     168.0000    total number of electrons
   NUPDOWN=      -1.0000    fix difference up-down

 DOS related values:
   EMIN   =  10.00;   EMAX   =-10.00  energy-range for DOS
   EFERMI =   0.00;   METHOD = LEGACY      
   ISMEAR =     0;   SIGMA  =   0.01  broadening in eV -4-tet -1-fermi 0-gaus

 Electronic relaxation 2 (details)
   IALGO  =     58    algorithm
   LDIAG  =      T    sub-space diagonalisation (order eigenvalues)
   LSUBROT=      F    optimize rotation matrix (better conditioning)
   TURBO    =      0    0=normal 1=particle mesh
   IRESTART =      0    0=no restart 2=restart with 2 vectors
   NREBOOT  =      0    no. of reboots
   NMIN     =      0    reboot dimension
   EREF     =   0.00    reference energy to select bands
   IMIX   =      4    mixing-type and parameters
     AMIX     =   0.40;   BMIX     =  1.00
     AMIX_MAG =   1.60;   BMIX_MAG =  1.00
     AMIN     =   0.10
     WC   =   100.;   INIMIX=   1;  MIXPRE=   1;  MAXMIX= -45

 Intra band minimization:
   WEIMIN = 0.0000     energy-eigenvalue tresh-hold
   EBREAK =  0.22E-09  absolut break condition
   DEPER  =   0.30     relativ break condition  

   TIME   =   0.40     timestep for ELM

  volume/ion in A,a.u.               =       9.09        61.31
  Fermi-wavevector in a.u.,A,eV,Ry     =   1.159847  2.191792 18.303156  1.345244
  Thomas-Fermi vector in A             =   2.296435

 Write flags
   LWAVE        =      F    write WAVECAR
   LDOWNSAMPLE  =      F    k-point downsampling of WAVECAR
   LCHARG       =      F    write CHGCAR
   LVTOT        =      F    write LOCPOT, total local potential
   LVHAR        =      F    write LOCPOT, Hartree potential only
   LELF         =      F    write electronic localiz. function (ELF)
   LORBIT       =      0    0 simple, 1 ext, 2 COOP (PROOUT), +10 PAW based schemes


 Dipole corrections
   LMONO  =      F    monopole corrections only (constant potential shift)
   LDIPOL =      F    correct potential (dipole corrections)
   IDIPOL =      0    1-x, 2-y, 3-z, 4-all directions 
   EPSILON=  1.0000000 bulk dielectric constant

 Exchange correlation treatment:
   GGA     =    --    GGA type
   LEXCH   =     8    internal setting for exchange type
   LIBXC   =     F    Libxc                    
   VOSKOWN =     0    Vosko Wilk Nusair interpolation
   LHFCALC =     F    Hartree Fock is set to
   LHFONE  =     F    Hartree Fock one center treatment
   AEXX    =    0.0000 exact exchange contribution

 Linear response parameters
   LEPSILON=     F    determine dielectric tensor
   LRPA    =     F    only Hartree local field effects (RPA)
   LNABLA  =     F    use nabla operator in PAW spheres
   LVEL    =     F    velocity operator in full k-point grid
   CSHIFT  =0.1000    complex shift for real part using Kramers Kronig
   OMEGAMAX=  -1.0    maximum frequency
   DEG_THRESHOLD= 0.2000000E-02 threshold for treating states as degnerate
   RTIME   =   -0.100 relaxation time in fs
  (WPLASMAI=    0.000 imaginary part of plasma frequency in eV, 0.658/RTIME)
   DFIELD  = 0.0000000 0.0000000 0.0000000 field for delta impulse in time

  Optional k-point grid parameters
   LKPOINTS_OPT  =     F    use optional k-point grid
   KPOINTS_OPT_MODE=     1    mode for optional k-point grid

 Orbital magnetization related:
   ORBITALMAG=     F  switch on orbital magnetization
   LCHIMAG   =     F  perturbation theory with respect to B field
   DQ        =  0.001000  dq finite difference perturbation B field
   LLRAUG    =     F  two centre corrections for induced B field
   LBONE     =     F  B-component reconstruction in AE one-centre
   LVGVCALC  =     T  calculate vGv susceptibility
   LVGVAPPL  =     F  apply vGv susceptibility instead of pGv for G=0

 Random number generation:
   RANDOM_GENERATOR = DEFAULT
   PCG_SEED         = not used


--------------------------------------------------------------------------------------------------------


 Static calculation
 charge density and potential will be updated during run
 non-spin polarized calculation
 Conjugate gradient for all bands (Freysoldt, et al. PRB 79, 241103 (2009))
 preconditioned conjugated gradient                                        
 perform sub-space diagonalisation
    before iterative eigenvector-optimisation
 modified Broyden-mixing scheme, WC =      100.0
 initial mixing is a Kerker type mixing with AMIX =  0.4000 and BMIX =      1.0000
 Hartree-type preconditioning will be used
 using additional bands           28
 reciprocal scheme for non local part
 use partial core corrections
 no Harris-corrections to forces 
 use gradient corrections 
 use of overlap-Matrix (Vanderbilt PP)
 Gauss-broadening in eV      SIGMA  =   0.01


--------------------------------------------------------------------------------------------------------


  energy-cutoff  :     1000.00
  volume of cell :      472.42
      direct lattice vectors                 reciprocal lattice vectors
    13.044000000  0.000000000  0.000000000     0.076663600  0.000000000  0.000000000
     0.000000000  9.496000000  0.000000000     0.000000000  0.105307498  0.000000000
     0.000000000  0.000000000  3.814000000     0.000000000  0.000000000  0.262191924

  length of vectors
    13.044000000  9.496000000  3.814000000     0.076663600  0.105307498  0.262191924



 k-points in units of 2pi/SCALE and weight: auto                                    
   0.00000000  0.00000000  0.00000000       0.024
   0.03833180  0.00000000  0.00000000       0.024
   0.00000000  0.03510250  0.00000000       0.048
   0.03833180  0.03510250  0.00000000       0.048
   0.00000000  0.00000000  0.03745599       0.048
   0.03833180  0.00000000  0.03745599       0.048
   0.00000000  0.03510250  0.03745599       0.048
   0.00000000 -0.03510250  0.03745599       0.048
   0.03833180  0.03510250  0.03745599       0.048
   0.03833180 -0.03510250  0.03745599       0.048
   0.00000000  0.00000000  0.07491198       0.048
   0.03833180  0.00000000  0.07491198       0.048
   0.00000000  0.03510250  0.07491198       0.048
   0.00000000 -0.03510250  0.07491198       0.048
   0.03833180  0.03510250  0.07491198       0.048
   0.03833180 -0.03510250  0.07491198       0.048
   0.00000000  0.00000000  0.11236797       0.048
   0.03833180  0.00000000  0.11236797       0.048
   0.00000000  0.03510250  0.11236797       0.048
   0.00000000 -0.03510250  0.11236797       0.048
   0.03833180  0.03510250  0.11236797       0.048
   0.03833180 -0.03510250  0.11236797       0.048

 k-points in reciprocal lattice and weights: auto                                    
   0.00000000  0.00000000  0.00000000       0.024
   0.50000000  0.00000000  0.00000000       0.024
   0.00000000  0.33333333  0.00000000       0.048
   0.50000000  0.33333333  0.00000000       0.048
   0.00000000  0.00000000  0.14285714       0.048
   0.50000000  0.00000000  0.14285714       0.048
   0.00000000  0.33333333  0.14285714       0.048
   0.00000000 -0.33333333  0.14285714       0.048
   0.50000000  0.33333333  0.14285714       0.048
   0.50000000 -0.33333333  0.14285714       0.048
   0.00000000  0.00000000  0.28571429       0.048
   0.50000000  0.00000000  0.28571429       0.048
   0.00000000  0.33333333  0.28571429       0.048
   0.00000000 -0.33333333  0.28571429       0.048
   0.50000000  0.33333333  0.28571429       0.048
   0.50000000 -0.33333333  0.28571429       0.048
   0.00000000  0.00000000  0.42857143       0.048
   0.50000000  0.00000000  0.42857143       0.048
   0.00000000  0.33333333  0.42857143       0.048
   0.00000000 -0.33333333  0.42857143       0.048
   0.50000000  0.33333333  0.42857143       0.048
   0.50000000 -0.33333333  0.42857143       0.048

 position of ions in fractional coordinates (direct lattice) 
   0.98367640  0.15414579  0.32457953
   0.51632386  0.84585233  0.82457951
   0.01632308  0.65414702  0.17542495
   0.48367852  0.34585224  0.67542457
   0.13074821  0.26399223  0.55044360
   0.36925098  0.73600915  0.05044037
   0.86925174  0.76398860  0.94955930
   0.63075094  0.23600937  0.44956067
   0.17083996  0.13285254  0.67308728
   0.32916058  0.86714755  0.17308826
   0.82916129  0.63285109  0.82691356
   0.67084059  0.36714785  0.32691550
   0.11323895  0.01592508  0.61181571
   0.38676112  0.98407492  0.11181648
   0.88676064  0.51592419  0.88818332
   0.61324002  0.48407517  0.38818801
   0.98934194  0.93213163  0.34584005
   0.51065881  0.06786660  0.84584107
   0.01065806  0.43213319  0.15416132
   0.48934266  0.56786663  0.65416283
   0.15449365  0.47775734  0.51794967
   0.34550579  0.52224458  0.01794758
   0.84550567  0.97775310  0.98205242
   0.65449665  0.02224636  0.48205381
   0.25839383  0.37689047  0.68555963
   0.24160505  0.62310975  0.18555812
   0.74160508  0.87688740  0.81444262
   0.75839799  0.12311213  0.31444387
   0.24362503  0.12863754  0.80977972
   0.25637534  0.87136332  0.30978014
   0.75637615  0.62863581  0.69021941
   0.74362615  0.37136377  0.19022091
   0.13500096  0.90989407  0.69231939
   0.36500068  0.09010607  0.19231841
   0.86500121  0.40989201  0.80768180
   0.63500052  0.59010708  0.30768378
   0.02233755  0.02568089  0.44072930
   0.47766364  0.97431967  0.94072512
   0.97766409  0.52567850  0.05927818
   0.52233690  0.47431980  0.55927849
   0.03951009  0.27249735  0.38604420
   0.46048905  0.72750249  0.88604092
   0.96048938  0.77249601  0.11396101
   0.53951279  0.22750277  0.61396358
   0.18416876  0.38313738  0.60025222
   0.31582907  0.61686370  0.10024737
   0.81582867  0.88313483  0.89974852
   0.68417290  0.11686454  0.39975356
   0.89963034  0.15655293  0.16201703
   0.60037083  0.84344528  0.66202132
   0.10037004  0.65655331  0.33798629
   0.39963027  0.34344433  0.83798355

 position of ions in cartesian coordinates  (Angst):
  12.83107499  1.46376843  1.23794632
   6.73492849  8.03221372  3.14494625
   0.21291826  6.21178009  0.66907077
   6.30910263  3.28421291  2.57606930
   1.70547959  2.50687019  2.09939188
   4.81650979  6.98914290  0.19237955
  11.33851972  7.25483573  3.62161916
   8.22751524  2.24114502  1.71462439
   2.22843641  1.26156776  2.56715488
   4.29357061  8.23443310  0.66015863
  10.81557991  6.00955398  3.15384832
   8.75044460  3.48643594  1.24685571
   1.47708890  0.15122457  2.33346513
   5.04491201  9.34477543  0.42646806
  11.56690582  4.89921607  3.38753120
   7.99910280  4.59677784  1.48054908
  12.90497622  8.85152191  1.31903395
   6.66103350  0.64446126  3.22603785
   0.13902378  4.10353677  0.58797128
   6.38298561  5.39246154  2.49497702
   2.01521512  4.53678374  1.97546003
   4.50677748  4.95923450  0.06845208
  11.02877600  9.28474347  3.74554792
   8.53725427  0.21125141  1.83855323
   3.37048911  3.57895190  2.61472445
   3.15149628  5.91705023  0.70771869
   9.67349667  8.32692273  3.10628417
   9.89254336  1.16907280  1.19928893
   3.17784495  1.22154206  3.08849984
   3.34415989  8.27446609  1.18150145
   9.86617044  5.96952568  2.63249684
   9.69985954  3.52647035  0.72550255
   1.76095250  8.64035409  2.64050615
   4.76106885  0.85564721  0.73350243
  11.28307572  3.89233456  3.08049837
   8.28294684  5.60365682  1.17350594
   0.29137105  0.24386573  1.68094157
   6.23064454  9.25213959  3.58792561
  12.75265039  4.99184306  0.22608698
   6.81336251  4.50414085  2.13308818
   0.51536959  2.58763483  1.47237257
   6.00661919  6.90836363  3.37936008
  12.52862352  7.33562211  0.43464730
   7.03740486  2.16036632  2.34165711
   2.40229736  3.63827254  2.28936198
   4.11967443  5.85773770  0.38234347
  10.64166915  8.38624836  3.43164085
   8.92435133  1.10974565  1.52466007
  11.73477809  1.48662658  0.61793295
   7.83123705  8.00935635  2.52494932
   1.30922684  6.23463023  1.28907971
   5.21277719  3.26134733  3.19606926



--------------------------------------------------------------------------------------------------------


 k-point   1 :   0.0000 0.0000 0.0000  plane waves:   33889
 k-point   2 :   0.5000 0.0000 0.0000  plane waves:   33984
 k-point   3 :   0.0000 0.3333 0.0000  plane waves:   33861
 k-point   4 :   0.5000 0.3333 0.0000  plane waves:   33882
 k-point   5 :   0.0000 0.0000 0.1429  plane waves:   33933
 k-point   6 :   0.5000 0.0000 0.1429  plane waves:   33874
 k-point   7 :   0.0000 0.3333 0.1429  plane waves:   33894
 k-point   8 :   0.0000-0.3333 0.1429  plane waves:   33894
 k-point   9 :   0.5000 0.3333 0.1429  plane waves:   33890
 k-point  10 :   0.5000-0.3333 0.1429  plane waves:   33890
 k-point  11 :   0.0000 0.0000 0.2857  plane waves:   33956
 k-point  12 :   0.5000 0.0000 0.2857  plane waves:   33904
 k-point  13 :   0.0000 0.3333 0.2857  plane waves:   33931
 k-point  14 :   0.0000-0.3333 0.2857  plane waves:   33931
 k-point  15 :   0.5000 0.3333 0.2857  plane waves:   33930
 k-point  16 :   0.5000-0.3333 0.2857  plane waves:   33930
 k-point  17 :   0.0000 0.0000 0.4286  plane waves:   33960
 k-point  18 :   0.5000 0.0000 0.4286  plane waves:   33924
 k-point  19 :   0.0000 0.3333 0.4286  plane waves:   33958
 k-point  20 :   0.0000-0.3333 0.4286  plane waves:   33958
 k-point  21 :   0.5000 0.3333 0.4286  plane waves:   33954
 k-point  22 :   0.5000-0.3333 0.4286  plane waves:   33954

 maximum and minimum number of plane-waves per node :      1116     1018

 maximum number of plane-waves:     33984
 maximum index in each direction: 
   IXMAX=   33   IYMAX=   24   IZMAX=    9
   IXMIN=  -34   IYMIN=  -24   IZMIN=  -10


 parallel 3D FFT for wavefunctions:
    minimum data exchange during FFTs selected (reduces bandwidth)
 parallel 3D FFT for charge:
    minimum data exchange during FFTs selected (reduces bandwidth)


 total amount of memory used by VASP MPI-rank0    76207. kBytes
=======================================================================

   base      :      30000. kBytes
   nonl-proj :       6877. kBytes
   fftplans  :       2136. kBytes
   grid      :       5256. kBytes
   one-center:          6. kBytes
   wavefun   :      31932. kBytes

     INWAV:  cpu time      0.0000: real time      0.0000
 Broyden mixing: mesh for mixing (old mesh)
   NGX = 67   NGY = 49   NGZ = 19
  (NGX  =280   NGY  =196   NGZ  = 80)
  gives a total of  62377 points

 initial charge density was supplied:
 charge density of overlapping atoms calculated
 number of electron     168.0000000 magnetization 
 keeping initial charge density in first step


--------------------------------------------------------------------------------------------------------


 Maximum index for augmentation-charges          470 (set IRDMAX)


--------------------------------------------------------------------------------------------------------


 First call to EWALD:  gamma=   0.228
 Maximum number of real-space cells 2x 2x 5
 Maximum number of reciprocal cells 4x 3x 2

    FEWALD:  cpu time      0.0046: real time      0.0046


--------------------------------------- Ionic step        1  -------------------------------------------




--------------------------------------- Iteration      1(   1)  ---------------------------------------


    POTLOK:  cpu time      0.1197: real time      0.1203
    SETDIJ:  cpu time      0.2709: real time      0.2711
    TRIAL :  cpu time      6.1599: real time      6.1654
    CORREC:  cpu time      0.0020: real time      0.0024
    --------------------------------------------
      LOOP:  cpu time      6.5698: real time      6.5767

 eigenvalue-minimisations  :  4928
 total energy-change (2. order) : 0.1417730E+04  (-0.1303716E+05)
 number of electron     168.0000000 magnetization 
 augmentation part      168.0000000 magnetization 

 Free energy of the ion-electron system (eV)
  ---------------------------------------------------
  alpha Z        PSCENC =       180.74474154
  Ewald energy   TEWEN  =     -3822.88917450
  -Hartree energ DENC   =     -3122.05496314
  -exchange      EXHF   =         0.00000000
  -V(xc)+E(xc)   XCENC  =       612.39045766
  PAW double counting   =      5583.84659820    -5564.92296521
  entropy T*S    EENTRO =        -0.00054980
  eigenvalues    EBANDS =        42.48114857
  atomic energy  EATOM  =      7508.13519592
  ---------------------------------------------------
  free energy    TOTEN  =      1417.73048924 eV

  energy without entropy =     1417.73103904  energy(sigma->0) =     1417.73076414


--------------------------------------------------------------------------------------------------------




--------------------------------------- Iteration      1(   2)  ---------------------------------------


    TRIAL :  cpu time      7.1354: real time      7.1393
    CORREC:  cpu time      0.0004: real time      0.0004
    --------------------------------------------
      LOOP:  cpu time      7.1491: real time      7.1687

 eigenvalue-minimisations  :  6440
 total energy-change (2. order) :-0.1618866E+04  (-0.1545533E+04)
 number of electron     168.0000000 magnetization 
 augmentation part      168.0000000 magnetization 

 Free energy of the ion-electron system (eV)
  ---------------------------------------------------
  alpha Z        PSCENC =       180.74474154
  Ewald energy   TEWEN  =     -3822.88917450
  -Hartree energ DENC   =     -3122.05496314
  -exchange      EXHF   =         0.00000000
  -V(xc)+E(xc)   XCENC  =       612.39045766
  PAW double counting   =      5583.84659820    -5564.92296521
  entropy T*S    EENTRO =        -0.00000000
  eigenvalues    EBANDS =     -1576.38557096
  atomic energy  EATOM  =      7508.13519592
  ---------------------------------------------------
  free energy    TOTEN  =      -201.13568049 eV

  energy without entropy =     -201.13568049  energy(sigma->0) =     -201.13568049


--------------------------------------------------------------------------------------------------------




--------------------------------------- Iteration      1(   3)  ---------------------------------------


    TRIAL :  cpu time      6.7879: real time      6.7922
    CORREC:  cpu time      0.0004: real time      0.0004
    --------------------------------------------
      LOOP:  cpu time      6.8022: real time      6.8222

 eigenvalue-minimisations  :  5952
 total energy-change (2. order) :-0.2407589E+03  (-0.2378369E+03)
 number of electron     168.0000000 magnetization 
 augmentation part      168.0000000 magnetization 

 Free energy of the ion-electron system (eV)
  ---------------------------------------------------
  alpha Z        PSCENC =       180.74474154
  Ewald energy   TEWEN  =     -3822.88917450
  -Hartree energ DENC   =     -3122.05496314
  -exchange      EXHF   =         0.00000000
  -V(xc)+E(xc)   XCENC  =       612.39045766
  PAW double counting   =      5583.84659820    -5564.92296521
  entropy T*S    EENTRO =        -0.00000000
  eigenvalues    EBANDS =     -1817.14446329
  atomic energy  EATOM  =      7508.13519592
  ---------------------------------------------------
  free energy    TOTEN  =      -441.89457283 eV

  energy without entropy =     -441.89457283  energy(sigma->0) =     -441.89457283


--------------------------------------------------------------------------------------------------------




--------------------------------------- Iteration      1(   4)  ---------------------------------------


    TRIAL :  cpu time      7.0271: real time      7.0321
    CORREC:  cpu time      0.0004: real time      0.0004
    --------------------------------------------
      LOOP:  cpu time      7.0574: real time      7.0626

 eigenvalue-minimisations  :  6296
 total energy-change (2. order) :-0.9711898E+01  (-0.9663679E+01)
 number of electron     168.0000000 magnetization 
 augmentation part      168.0000000 magnetization 

 Free energy of the ion-electron system (eV)
  ---------------------------------------------------
  alpha Z        PSCENC =       180.74474154
  Ewald energy   TEWEN  =     -3822.88917450
  -Hartree energ DENC   =     -3122.05496314
  -exchange      EXHF   =         0.00000000
  -V(xc)+E(xc)   XCENC  =       612.39045766
  PAW double counting   =      5583.84659820    -5564.92296521
  entropy T*S    EENTRO =        -0.00000000
  eigenvalues    EBANDS =     -1826.85636171
  atomic energy  EATOM  =      7508.13519592
  ---------------------------------------------------
  free energy    TOTEN  =      -451.60647125 eV

  energy without entropy =     -451.60647125  energy(sigma->0) =     -451.60647125


--------------------------------------------------------------------------------------------------------




--------------------------------------- Iteration      1(   5)  ---------------------------------------


    TRIAL :  cpu time      7.0379: real time      7.0426
    CORREC:  cpu time      0.0004: real time      0.0004
    CHARGE:  cpu time      0.3882: real time      0.3894
    --------------------------------------------
      LOOP:  cpu time      7.4376: real time      7.4612

 eigenvalue-minimisations  :  6232
 total energy-change (2. order) :-0.2962405E+00  (-0.2958478E+00)
 number of electron     167.9999999 magnetization 
 augmentation part       -0.0322995 magnetization 

 Free energy of the ion-electron system (eV)
  ---------------------------------------------------
  alpha Z        PSCENC =       180.74474154
  Ewald energy   TEWEN  =     -3822.88917450
  -Hartree energ DENC   =     -3122.05496314
  -exchange      EXHF   =         0.00000000
  -V(xc)+E(xc)   XCENC  =       612.39045766
  PAW double counting   =      5583.84659820    -5564.92296521
  entropy T*S    EENTRO =        -0.00000000
  eigenvalues    EBANDS =     -1827.15260220
  atomic energy  EATOM  =      7508.13519592
  ---------------------------------------------------
  free energy    TOTEN  =      -451.90271174 eV

  energy without entropy =     -451.90271174  energy(sigma->0) =     -451.90271174


--------------------------------------------------------------------------------------------------------




--------------------------------------- Iteration      1(   6)  ---------------------------------------


    POTLOK:  cpu time      0.0988: real time      0.0988
    SETDIJ:  cpu time      0.2671: real time      0.2671
    TRIAL :  cpu time      4.6899: real time      4.6940
    CORREC:  cpu time      1.8564: real time      1.8578
    CHARGE:  cpu time      0.3741: real time      0.3741
    --------------------------------------------
      LOOP:  cpu time      7.3000: real time      7.3224

 eigenvalue-minimisations  :     0
 total energy-change (2. order) : 0.9715018E+02  (-0.1943611E+02)
 number of electron     167.9999999 magnetization 
 augmentation part       -0.1798822 magnetization 

 Free energy of the ion-electron system (eV)
  ---------------------------------------------------
  alpha Z        PSCENC =       180.74474154
  Ewald energy   TEWEN  =     -3822.88917450
  -Hartree energ DENC   =     -3888.22956492
  -exchange      EXHF   =         0.00000000
  -V(xc)+E(xc)   XCENC  =       686.28810035
  PAW double counting   =     75284.98132747   -75272.98180258
  entropy T*S    EENTRO =        -0.00000000
  eigenvalues    EBANDS =     -1030.80135754
  atomic energy  EATOM  =      7508.13519592
  ---------------------------------------------------
  free energy    TOTEN  =      -354.75253425 eV

  energy without entropy =     -354.75253425  energy(sigma->0) =     -354.75253425


--------------------------------------------------------------------------------------------------------




--------------------------------------- Iteration      1(   7)  ---------------------------------------


    POTLOK:  cpu time      0.0969: real time      0.0969
    SETDIJ:  cpu time      0.2650: real time      0.2650
    TRIAL :  cpu time      4.6570: real time      4.6598
    CORREC:  cpu time      1.8410: real time      1.8421
    CHARGE:  cpu time      0.3756: real time      0.3756
    --------------------------------------------
      LOOP:  cpu time      7.2498: real time      7.2692

 eigenvalue-minimisations  :     0
 total energy-change (2. order) :-0.1944931E+02  (-0.2393219E+01)
 number of electron     167.9999999 magnetization 
 augmentation part       -0.2431627 magnetization 

 Free energy of the ion-electron system (eV)
  ---------------------------------------------------
  alpha Z        PSCENC =       180.74474154
  Ewald energy   TEWEN  =     -3822.88917450
  -Hartree energ DENC   =     -3554.93381133
  -exchange      EXHF   =         0.00000000
  -V(xc)+E(xc)   XCENC  =       659.57370887
  PAW double counting   =     95448.09834443   -95431.47616320
  entropy T*S    EENTRO =        -0.00000000
  eigenvalues    EBANDS =     -1361.45468616
  atomic energy  EATOM  =      7508.13519592
  ---------------------------------------------------
  free energy    TOTEN  =      -374.20184444 eV

  energy without entropy =     -374.20184444  energy(sigma->0) =     -374.20184444


--------------------------------------------------------------------------------------------------------




--------------------------------------- Iteration      1(   8)  ---------------------------------------


    POTLOK:  cpu time      0.0967: real time      0.0967
    SETDIJ:  cpu time      0.2655: real time      0.2660
    TRIAL :  cpu time      4.7330: real time      4.7354
    CORREC:  cpu time      1.8468: real time      1.8478
    CHARGE:  cpu time      0.3764: real time      0.3768
    --------------------------------------------
      LOOP:  cpu time      7.3312: real time      7.3525

 eigenvalue-minimisations  :     0
 total energy-change (2. order) :-0.2401302E+01  (-0.7274102E+00)
 number of electron     167.9999999 magnetization 
 augmentation part       -0.2344512 magnetization 

 Free energy of the ion-electron system (eV)
  ---------------------------------------------------
  alpha Z        PSCENC =       180.74474154
  Ewald energy   TEWEN  =     -3822.88917450
  -Hartree energ DENC   =     -3552.97127884
  -exchange      EXHF   =         0.00000000
  -V(xc)+E(xc)   XCENC  =       658.93977524
  PAW double counting   =    103408.56316819  -103391.43114208
  entropy T*S    EENTRO =        -0.00000000
  eigenvalues    EBANDS =     -1365.69443193
  atomic energy  EATOM  =      7508.13519592
  ---------------------------------------------------
  free energy    TOTEN  =      -376.60314646 eV

  energy without entropy =     -376.60314646  energy(sigma->0) =     -376.60314646


--------------------------------------------------------------------------------------------------------




--------------------------------------- Iteration      1(   9)  ---------------------------------------


    POTLOK:  cpu time      0.0965: real time      0.0965
    SETDIJ:  cpu time      0.2689: real time      0.2689
    TRIAL :  cpu time      4.6479: real time      4.6507
    CORREC:  cpu time      1.8445: real time      1.8451
    CHARGE:  cpu time      0.4022: real time      0.4027
    --------------------------------------------
      LOOP:  cpu time      7.2731: real time      7.2935

 eigenvalue-minimisations  :     0
 total energy-change (2. order) :-0.7263642E+00  (-0.2206571E+00)
 number of electron     167.9999999 magnetization 
 augmentation part       -0.2211666 magnetization 

 Free energy of the ion-electron system (eV)
  ---------------------------------------------------
  alpha Z        PSCENC =       180.74474154
  Ewald energy   TEWEN  =     -3822.88917450
  -Hartree energ DENC   =     -3551.66330787
  -exchange      EXHF   =         0.00000000
  -V(xc)+E(xc)   XCENC  =       658.93493853
  PAW double counting   =    108431.31540072  -108414.05810847
  entropy T*S    EENTRO =        -0.00000000
  eigenvalues    EBANDS =     -1367.84919650
  atomic energy  EATOM  =      7508.13519592
  ---------------------------------------------------
  free energy    TOTEN  =      -377.32951064 eV

  energy without entropy =     -377.32951064  energy(sigma->0) =     -377.32951064


--------------------------------------------------------------------------------------------------------




--------------------------------------- Iteration      1(  10)  ---------------------------------------


    POTLOK:  cpu time      0.0969: real time      0.0969
    SETDIJ:  cpu time      0.2661: real time      0.2661
    TRIAL :  cpu time      4.6235: real time      4.6262
    CORREC:  cpu time      1.8637: real time      1.8647
    CHARGE:  cpu time      0.3977: real time      0.3977
    --------------------------------------------
      LOOP:  cpu time      7.2774: real time      7.2815

 eigenvalue-minimisations  :     0
 total energy-change (2. order) :-0.2205318E+00  (-0.6293643E-01)
 number of electron     167.9999999 magnetization 
 augmentation part       -0.2167366 magnetization 

 Free energy of the ion-electron system (eV)
  ---------------------------------------------------
  alpha Z        PSCENC =       180.74474154
  Ewald energy   TEWEN  =     -3822.88917450
  -Hartree energ DENC   =     -3543.42513241
  -exchange      EXHF   =         0.00000000
  -V(xc)+E(xc)   XCENC  =       658.54897162
  PAW double counting   =    108959.19295611  -108941.95316336
  entropy T*S    EENTRO =        -0.00000000
  eigenvalues    EBANDS =     -1375.90443739
  atomic energy  EATOM  =      7508.13519592
  ---------------------------------------------------
  free energy    TOTEN  =      -377.55004248 eV

  energy without entropy =     -377.55004248  energy(sigma->0) =     -377.55004248


--------------------------------------------------------------------------------------------------------




--------------------------------------- Iteration      1(  11)  ---------------------------------------


    POTLOK:  cpu time      0.0965: real time      0.0965
    SETDIJ:  cpu time      0.2648: real time      0.2652
    TRIAL :  cpu time      4.6304: real time      4.6329
    CORREC:  cpu time      1.8453: real time      1.8463
    CHARGE:  cpu time      0.3848: real time      0.3849
    --------------------------------------------
      LOOP:  cpu time      7.2348: real time      7.2552

 eigenvalue-minimisations  :     0
 total energy-change (2. order) :-0.6292343E-01  (-0.1517510E-01)
 number of electron     167.9999999 magnetization 
 augmentation part       -0.2166840 magnetization 

 Free energy of the ion-electron system (eV)
  ---------------------------------------------------
  alpha Z        PSCENC =       180.74474154
  Ewald energy   TEWEN  =     -3822.88917450
  -Hartree energ DENC   =     -3540.84073977
  -exchange      EXHF   =         0.00000000
  -V(xc)+E(xc)   XCENC  =       658.39565474
  PAW double counting   =    108039.98871860  -108022.79511469
  entropy T*S    EENTRO =        -0.00000000
  eigenvalues    EBANDS =     -1378.35224776
  atomic energy  EATOM  =      7508.13519592
  ---------------------------------------------------
  free energy    TOTEN  =      -377.61296591 eV

  energy without entropy =     -377.61296591  energy(sigma->0) =     -377.61296591


--------------------------------------------------------------------------------------------------------




--------------------------------------- Iteration      1(  12)  ---------------------------------------


    POTLOK:  cpu time      0.0966: real time      0.0970
    SETDIJ:  cpu time      0.2840: real time      0.2840
    TRIAL :  cpu time      4.6305: real time      4.6329
    CORREC:  cpu time      1.8412: real time      1.8423
    CHARGE:  cpu time      0.3742: real time      0.3746
    --------------------------------------------
      LOOP:  cpu time      7.2391: real time      7.2598

 eigenvalue-minimisations  :     0
 total energy-change (2. order) :-0.1515996E-01  (-0.3694819E-02)
 number of electron     167.9999999 magnetization 
 augmentation part       -0.2175337 magnetization 

 Free energy of the ion-electron system (eV)
  ---------------------------------------------------
  alpha Z        PSCENC =       180.74474154
  Ewald energy   TEWEN  =     -3822.88917450
  -Hartree energ DENC   =     -3540.45990473
  -exchange      EXHF   =         0.00000000
  -V(xc)+E(xc)   XCENC  =       658.33293870
  PAW double counting   =    107486.01498159  -107468.82683434
  entropy T*S    EENTRO =        -0.00000000
  eigenvalues    EBANDS =     -1378.68007006
  atomic energy  EATOM  =      7508.13519592
  ---------------------------------------------------
  free energy    TOTEN  =      -377.62812588 eV

  energy without entropy =     -377.62812588  energy(sigma->0) =     -377.62812588


--------------------------------------------------------------------------------------------------------




--------------------------------------- Iteration      1(  13)  ---------------------------------------


    POTLOK:  cpu time      0.0964: real time      0.0964
    SETDIJ:  cpu time      0.2659: real time      0.2659
    TRIAL :  cpu time      4.6151: real time      4.6180
    CORREC:  cpu time      1.8395: real time      1.8405
    CHARGE:  cpu time      0.3740: real time      0.3740
    --------------------------------------------
      LOOP:  cpu time      7.2085: real time      7.2263

 eigenvalue-minimisations  :     0
 total energy-change (2. order) :-0.3688503E-02  (-0.9729281E-03)
 number of electron     167.9999999 magnetization 
 augmentation part       -0.2183283 magnetization 

 Free energy of the ion-electron system (eV)
  ---------------------------------------------------
  alpha Z        PSCENC =       180.74474154
  Ewald energy   TEWEN  =     -3822.88917450
  -Hartree energ DENC   =     -3540.04945324
  -exchange      EXHF   =         0.00000000
  -V(xc)+E(xc)   XCENC  =       658.31203659
  PAW double counting   =    107187.03591798  -107169.84816331
  entropy T*S    EENTRO =        -0.00000000
  eigenvalues    EBANDS =     -1379.07291536
  atomic energy  EATOM  =      7508.13519592
  ---------------------------------------------------
  free energy    TOTEN  =      -377.63181438 eV

  energy without entropy =     -377.63181438  energy(sigma->0) =     -377.63181438


--------------------------------------------------------------------------------------------------------




--------------------------------------- Iteration      1(  14)  ---------------------------------------


    POTLOK:  cpu time      0.0964: real time      0.0964
    SETDIJ:  cpu time      0.2667: real time      0.2667
    TRIAL :  cpu time      4.6667: real time      4.6697
    CORREC:  cpu time      1.8427: real time      1.8439
    CHARGE:  cpu time      0.3747: real time      0.3748
    --------------------------------------------
      LOOP:  cpu time      7.2630: real time      7.2816

 eigenvalue-minimisations  :     0
 total energy-change (2. order) :-0.9695394E-03  (-0.2776347E-03)
 number of electron     167.9999999 magnetization 
 augmentation part       -0.2183090 magnetization 

 Free energy of the ion-electron system (eV)
  ---------------------------------------------------
  alpha Z        PSCENC =       180.74474154
  Ewald energy   TEWEN  =     -3822.88917450
  -Hartree energ DENC   =     -3539.83039082
  -exchange      EXHF   =         0.00000000
  -V(xc)+E(xc)   XCENC  =       658.29025116
  PAW double counting   =    107019.75669943  -107002.56402692
  entropy T*S    EENTRO =        -0.00000000
  eigenvalues    EBANDS =     -1379.27607973
  atomic energy  EATOM  =      7508.13519592
  ---------------------------------------------------
  free energy    TOTEN  =      -377.63278392 eV

  energy without entropy =     -377.63278392  energy(sigma->0) =     -377.63278392


--------------------------------------------------------------------------------------------------------




--------------------------------------- Iteration      1(  15)  ---------------------------------------


    POTLOK:  cpu time      0.0961: real time      0.0962
    SETDIJ:  cpu time      0.2649: real time      0.2654
    TRIAL :  cpu time      4.6324: real time      4.6351
    CORREC:  cpu time      1.8494: real time      1.8508
    CHARGE:  cpu time      0.3754: real time      0.3754
    --------------------------------------------
      LOOP:  cpu time      7.2475: real time      7.2523

 eigenvalue-minimisations  :     0
 total energy-change (2. order) :-0.2759558E-03  (-0.9012455E-04)
 number of electron     167.9999999 magnetization 
 augmentation part       -0.2184672 magnetization 

 Free energy of the ion-electron system (eV)
  ---------------------------------------------------
  alpha Z        PSCENC =       180.74474154
  Ewald energy   TEWEN  =     -3822.88917450
  -Hartree energ DENC   =     -3540.11936796
  -exchange      EXHF   =         0.00000000
  -V(xc)+E(xc)   XCENC  =       658.30566059
  PAW double counting   =    106909.68880520  -106892.49834473
  entropy T*S    EENTRO =        -0.00000000
  eigenvalues    EBANDS =     -1379.00057593
  atomic energy  EATOM  =      7508.13519592
  ---------------------------------------------------
  free energy    TOTEN  =      -377.63305987 eV

  energy without entropy =     -377.63305987  energy(sigma->0) =     -377.63305987


--------------------------------------------------------------------------------------------------------




--------------------------------------- Iteration      1(  16)  ---------------------------------------


    POTLOK:  cpu time      0.0962: real time      0.0966
    SETDIJ:  cpu time      0.2666: real time      0.2666
    TRIAL :  cpu time      4.6215: real time      4.6239
    CORREC:  cpu time      1.8768: real time      1.8780
    CHARGE:  cpu time      0.3756: real time      0.3760
    --------------------------------------------
      LOOP:  cpu time      7.2500: real time      7.2696

 eigenvalue-minimisations  :     0
 total energy-change (2. order) :-0.9049408E-04  (-0.3038181E-04)
 number of electron     167.9999999 magnetization 
 augmentation part       -0.2184208 magnetization 

 Free energy of the ion-electron system (eV)
  ---------------------------------------------------
  alpha Z        PSCENC =       180.74474154
  Ewald energy   TEWEN  =     -3822.88917450
  -Hartree energ DENC   =     -3539.98790644
  -exchange      EXHF   =         0.00000000
  -V(xc)+E(xc)   XCENC  =       658.29614608
  PAW double counting   =    106877.64409725  -106860.45185197
  entropy T*S    EENTRO =        -0.00000000
  eigenvalues    EBANDS =     -1379.12439825
  atomic energy  EATOM  =      7508.13519592
  ---------------------------------------------------
  free energy    TOTEN  =      -377.63315037 eV

  energy without entropy =     -377.63315037  energy(sigma->0) =     -377.63315037


--------------------------------------------------------------------------------------------------------




--------------------------------------- Iteration      1(  17)  ---------------------------------------


    POTLOK:  cpu time      0.0967: real time      0.0967
    SETDIJ:  cpu time      0.2660: real time      0.2660
    TRIAL :  cpu time      4.6224: real time      4.6258
    CORREC:  cpu time      1.8382: real time      1.8394
    CHARGE:  cpu time      0.3749: real time      0.3749
    --------------------------------------------
      LOOP:  cpu time      7.2108: real time      7.2321

 eigenvalue-minimisations  :     0
 total energy-change (2. order) :-0.3040390E-04  (-0.9912617E-05)
 number of electron     167.9999999 magnetization 
 augmentation part       -0.2184930 magnetization 

 Free energy of the ion-electron system (eV)
  ---------------------------------------------------
  alpha Z        PSCENC =       180.74474154
  Ewald energy   TEWEN  =     -3822.88917450
  -Hartree energ DENC   =     -3540.09721827
  -exchange      EXHF   =         0.00000000
  -V(xc)+E(xc)   XCENC  =       658.30378163
  PAW double counting   =    106885.53417555  -106868.34305525
  entropy T*S    EENTRO =        -0.00000000
  eigenvalues    EBANDS =     -1379.02162739
  atomic energy  EATOM  =      7508.13519592
  ---------------------------------------------------
  free energy    TOTEN  =      -377.63318077 eV

  energy without entropy =     -377.63318077  energy(sigma->0) =     -377.63318077


--------------------------------------------------------------------------------------------------------




--------------------------------------- Iteration      1(  18)  ---------------------------------------


    POTLOK:  cpu time      0.0966: real time      0.0966
    SETDIJ:  cpu time      0.2662: real time      0.2662
    TRIAL :  cpu time      4.6205: real time      4.6235
    CORREC:  cpu time      1.8357: real time      1.8368
    CHARGE:  cpu time      0.3753: real time      0.3753
    --------------------------------------------
      LOOP:  cpu time      7.2067: real time      7.2280

 eigenvalue-minimisations  :     0
 total energy-change (2. order) :-0.9890980E-05  (-0.2771793E-05)
 number of electron     167.9999999 magnetization 
 augmentation part       -0.2184817 magnetization 

 Free energy of the ion-electron system (eV)
  ---------------------------------------------------
  alpha Z        PSCENC =       180.74474154
  Ewald energy   TEWEN  =     -3822.88917450
  -Hartree energ DENC   =     -3540.07930873
  -exchange      EXHF   =         0.00000000
  -V(xc)+E(xc)   XCENC  =       658.30233072
  PAW double counting   =    106911.53172388  -106894.33967687
  entropy T*S    EENTRO =        -0.00000000
  eigenvalues    EBANDS =     -1379.03902263
  atomic energy  EATOM  =      7508.13519592
  ---------------------------------------------------
  free energy    TOTEN  =      -377.63319066 eV

  energy without entropy =     -377.63319066  energy(sigma->0) =     -377.63319066


--------------------------------------------------------------------------------------------------------




--------------------------------------- Iteration      1(  19)  ---------------------------------------


    POTLOK:  cpu time      0.0964: real time      0.0964
    SETDIJ:  cpu time      0.2648: real time      0.2653
    TRIAL :  cpu time      4.6430: real time      4.6454
    CORREC:  cpu time      1.8448: real time      1.8460
    CHARGE:  cpu time      0.3783: real time      0.3783
    --------------------------------------------
      LOOP:  cpu time      7.2411: real time      7.2604

 eigenvalue-minimisations  :     0
 total energy-change (2. order) :-0.2830551E-05  (-0.8580575E-06)
 number of electron     167.9999999 magnetization 
 augmentation part       -0.2184907 magnetization 

 Free energy of the ion-electron system (eV)
  ---------------------------------------------------
  alpha Z        PSCENC =       180.74474154
  Ewald energy   TEWEN  =     -3822.88917450
  -Hartree energ DENC   =     -3540.08906812
  -exchange      EXHF   =         0.00000000
  -V(xc)+E(xc)   XCENC  =       658.30352490
  PAW double counting   =    106925.94920185  -106908.75730987
  entropy T*S    EENTRO =        -0.00000000
  eigenvalues    EBANDS =     -1379.03030520
  atomic energy  EATOM  =      7508.13519592
  ---------------------------------------------------
  free energy    TOTEN  =      -377.63319349 eV

  energy without entropy =     -377.63319349  energy(sigma->0) =     -377.63319349


--------------------------------------------------------------------------------------------------------




--------------------------------------- Iteration      1(  20)  ---------------------------------------


    POTLOK:  cpu time      0.0961: real time      0.0965
    SETDIJ:  cpu time      0.2657: real time      0.2657
    TRIAL :  cpu time      4.6528: real time      4.6552
    CORREC:  cpu time      1.8360: real time      1.8376
    CHARGE:  cpu time      0.3753: real time      0.3757
    --------------------------------------------
      LOOP:  cpu time      7.2380: real time      7.2606

 eigenvalue-minimisations  :     0
 total energy-change (2. order) :-0.8555362E-06  (-0.3099569E-06)
 number of electron     167.9999999 magnetization 
 augmentation part       -0.2184835 magnetization 

 Free energy of the ion-electron system (eV)
  ---------------------------------------------------
  alpha Z        PSCENC =       180.74474154
  Ewald energy   TEWEN  =     -3822.88917450
  -Hartree energ DENC   =     -3540.08342444
  -exchange      EXHF   =         0.00000000
  -V(xc)+E(xc)   XCENC  =       658.30310647
  PAW double counting   =    106931.42009574  -106914.22811447
  entropy T*S    EENTRO =        -0.00000000
  eigenvalues    EBANDS =     -1379.03562060
  atomic energy  EATOM  =      7508.13519592
  ---------------------------------------------------
  free energy    TOTEN  =      -377.63319435 eV

  energy without entropy =     -377.63319435  energy(sigma->0) =     -377.63319435


--------------------------------------------------------------------------------------------------------




--------------------------------------- Iteration      1(  21)  ---------------------------------------


    POTLOK:  cpu time      0.0968: real time      0.0968
    SETDIJ:  cpu time      0.2654: real time      0.2654
    TRIAL :  cpu time      4.7836: real time      4.7866
    CORREC:  cpu time      1.8974: real time      1.8985
    CHARGE:  cpu time      0.3748: real time      0.3748
[...]
     71      -1.1379      2.00000
     72      -1.1379      2.00000
     73      -0.8128      2.00000
     74      -0.8128      2.00000
     75      -0.6781      2.00000
     76      -0.6781      2.00000
     77      -0.5457      2.00000
     78      -0.5457      2.00000
     79      -0.4830      2.00000
     80      -0.4830      2.00000
     81       0.0720      2.00000
     82       0.0720      2.00000
     83       0.1205      2.00000
     84       0.1206      2.00000
     85       4.2249      0.00000
     86       4.2250      0.00000
     87       4.2449      0.00000
     88       4.2450      0.00000
     89       5.2848      0.00000
     90       5.2848      0.00000
     91       5.3249      0.00000
     92       5.3249      0.00000
     93       7.5936      0.00000
     94       7.5937      0.00000
     95       7.7383      0.00000
     96       7.7383      0.00000
     97       8.3505      0.00000
     98       8.3512      0.00000
     99       8.5705      0.00000
    100       8.5707      0.00000
    101       9.0214      0.00000
    102       9.0245      0.00000
    103       9.3449      0.00000
    104       9.3488      0.00000
    105       9.6310      0.00000
    106       9.6417      0.00000
    107       9.8543      0.00000
    108       9.9102      0.00000
    109       9.9547      0.00000
    110      10.1242      0.00000
    111      10.2793      0.00000
    112      10.3599      0.00000

 k-point    22 :       0.5000   -0.3333    0.4286
  band No.  band energies     occupation 
      1     -21.5061      2.00000
      2     -21.5060      2.00000
      3     -21.4701      2.00000
      4     -21.4700      2.00000
      5     -19.5075      2.00000
      6     -19.5074      2.00000
      7     -19.4797      2.00000
      8     -19.4796      2.00000
      9     -18.6685      2.00000
     10     -18.6685      2.00000
     11     -18.6385      2.00000
     12     -18.6385      2.00000
     13     -16.8515      2.00000
     14     -16.8514      2.00000
     15     -16.8062      2.00000
     16     -16.8061      2.00000
     17     -14.3379      2.00000
     18     -14.3378      2.00000
     19     -14.3001      2.00000
     20     -14.2999      2.00000
     21     -11.2358      2.00000
     22     -11.2358      2.00000
     23     -11.1866      2.00000
     24     -11.1866      2.00000
     25     -10.8064      2.00000
     26     -10.8063      2.00000
     27     -10.7815      2.00000
     28     -10.7814      2.00000
     29      -8.5878      2.00000
     30      -8.5878      2.00000
     31      -8.3922      2.00000
     32      -8.3921      2.00000
     33      -8.2649      2.00000
     34      -8.2649      2.00000
     35      -8.0373      2.00000
     36      -8.0373      2.00000
     37      -7.4685      2.00000
     38      -7.4684      2.00000
     39      -7.3700      2.00000
     40      -7.3700      2.00000
     41      -6.5538      2.00000
     42      -6.5538      2.00000
     43      -6.4141      2.00000
     44      -6.4140      2.00000
     45      -6.1406      2.00000
     46      -6.1405      2.00000
     47      -6.0055      2.00000
     48      -6.0054      2.00000
     49      -5.4587      2.00000
     50      -5.4586      2.00000
     51      -5.3166      2.00000
     52      -5.3166      2.00000
     53      -4.7948      2.00000
     54      -4.7947      2.00000
     55      -4.7076      2.00000
     56      -4.7075      2.00000
     57      -4.4565      2.00000
     58      -4.4564      2.00000
     59      -4.3659      2.00000
     60      -4.3658      2.00000
     61      -3.9309      2.00000
     62      -3.9309      2.00000
     63      -3.7716      2.00000
     64      -3.7716      2.00000
     65      -2.9359      2.00000
     66      -2.9358      2.00000
     67      -2.8630      2.00000
     68      -2.8630      2.00000
     69      -1.4163      2.00000
     70      -1.4163      2.00000
     71      -1.1379      2.00000
     72      -1.1379      2.00000
     73      -0.8128      2.00000
     74      -0.8128      2.00000
     75      -0.6781      2.00000
     76      -0.6781      2.00000
     77      -0.5457      2.00000
     78      -0.5457      2.00000
     79      -0.4830      2.00000
     80      -0.4830      2.00000
     81       0.0720      2.00000
     82       0.0720      2.00000
     83       0.1205      2.00000
     84       0.1206      2.00000
     85       4.2249      0.00000
     86       4.2250      0.00000
     87       4.2449      0.00000
     88       4.2450      0.00000
     89       5.2848      0.00000
     90       5.2848      0.00000
     91       5.3249      0.00000
     92       5.3249      0.00000
     93       7.5937      0.00000
     94       7.5937      0.00000
     95       7.7383      0.00000
     96       7.7383      0.00000
     97       8.3505      0.00000
     98       8.3506      0.00000
     99       8.5706      0.00000
    100       8.5715      0.00000
    101       9.0211      0.00000
    102       9.0232      0.00000
    103       9.3423      0.00000
    104       9.3465      0.00000
    105       9.6228      0.00000
    106       9.6270      0.00000
    107       9.8485      0.00000
    108       9.8778      0.00000
    109       9.9848      0.00000
    110      10.0610      0.00000
    111      10.1639      0.00000
    112      10.4898      0.00000


--------------------------------------------------------------------------------------------------------


 soft charge-density along one line, spin component           1
         0         1         2         3         4         5         6         7         8         9
 total charge-density along one line

 pseudopotential strength for first ion, spin component:           1
 12.530  21.082  -0.005   0.002   0.001  -0.009   0.003   0.002
 21.082  35.470  -0.009   0.003   0.002  -0.016   0.005   0.004
 -0.005  -0.009  -3.197   0.000  -0.000  -5.722   0.000  -0.000
  0.002   0.003   0.000  -3.196  -0.000   0.000  -5.721  -0.001
  0.001   0.002  -0.000  -0.000  -3.197  -0.000  -0.001  -5.723
 -0.009  -0.016  -5.722   0.000  -0.000 -10.221   0.000  -0.000
  0.003   0.005   0.000  -5.721  -0.001   0.000 -10.219  -0.003
  0.002   0.004  -0.000  -0.001  -5.723  -0.000  -0.003 -10.222
 total augmentation occupancy for first ion, spin component:           1
 10.912  -4.334   0.044  -0.542  -0.828  -0.015   0.262   0.409
 -4.334   1.795   0.003   0.271   0.428   0.002  -0.133  -0.212
  0.044   0.003   8.260  -0.407   0.428  -3.039   0.183  -0.167
 -0.542   0.271  -0.407   5.215   2.680   0.183  -1.765  -1.152
 -0.828   0.428   0.428   2.680   8.613  -0.167  -1.152  -3.214
 -0.015   0.002  -3.039   0.183  -0.167   1.136  -0.078   0.067
  0.262  -0.133   0.183  -1.765  -1.152  -0.078   0.616   0.492
  0.409  -0.212  -0.167  -1.152  -3.214   0.067   0.492   1.232


------------------------ aborting loop because EDIFF is reached ----------------------------------------


    FORLOC:  cpu time      0.0108: real time      0.0108
    FORNL :  cpu time      1.3014: real time      1.3020
    FORCOR:  cpu time      0.3633: real time      0.3633
    OFIELD:  cpu time      0.0018: real time      0.0018

 VOLUME and BASIS-vectors are now :
 -----------------------------------------------------------------------------
  energy-cutoff  :     1000.00
  volume of cell :      472.42
      direct lattice vectors                 reciprocal lattice vectors
    13.044000000  0.000000000  0.000000000     0.076663600  0.000000000  0.000000000
     0.000000000  9.496000000  0.000000000     0.000000000  0.105307498  0.000000000
     0.000000000  0.000000000  3.814000000     0.000000000  0.000000000  0.262191924

  length of vectors
    13.044000000  9.496000000  3.814000000     0.076663600  0.105307498  0.262191924


 FORCES acting on ions:
    Electron-Ion                     Ewald-Force                    Non-Local-Force
 -----------------------------------------------------------------------------------------------
   0.927E+01 -.617E+01 -.155E+02   -.996E+01 0.865E+01 0.146E+02   0.604E+00 -.251E+01 0.830E+00
   -.927E+01 0.617E+01 -.155E+02   0.996E+01 -.865E+01 0.146E+02   -.604E+00 0.251E+01 0.830E+00
   -.927E+01 -.617E+01 0.155E+02   0.997E+01 0.865E+01 -.146E+02   -.604E+00 -.251E+01 -.830E+00
   0.927E+01 0.617E+01 0.155E+02   -.997E+01 -.865E+01 -.146E+02   0.604E+00 0.251E+01 -.830E+00
   -.712E+02 0.507E+01 -.165E+02   0.720E+02 -.105E+02 0.173E+02   -.927E+00 0.547E+01 -.813E+00
   0.712E+02 -.507E+01 -.165E+02   -.720E+02 0.104E+02 0.173E+02   0.927E+00 -.547E+01 -.813E+00
   0.712E+02 0.506E+01 0.165E+02   -.720E+02 -.104E+02 -.173E+02   0.927E+00 0.547E+01 0.813E+00
   -.712E+02 -.507E+01 0.165E+02   0.720E+02 0.104E+02 -.173E+02   -.928E+00 -.547E+01 0.813E+00
   -.139E+03 0.279E+02 -.480E+02   0.141E+03 -.290E+02 0.491E+02   -.179E+01 0.111E+01 -.111E+01
   0.139E+03 -.279E+02 -.480E+02   -.141E+03 0.290E+02 0.491E+02   0.179E+01 -.111E+01 -.111E+01
   0.139E+03 0.279E+02 0.480E+02   -.141E+03 -.290E+02 -.491E+02   0.179E+01 0.111E+01 0.111E+01
   -.139E+03 -.279E+02 0.480E+02   0.141E+03 0.290E+02 -.491E+02   -.179E+01 -.111E+01 0.111E+01
   -.999E+02 0.116E+03 -.454E+02   0.107E+03 -.116E+03 0.488E+02   -.728E+01 0.161E+00 -.357E+01
   0.999E+02 -.116E+03 -.454E+02   -.107E+03 0.116E+03 0.488E+02   0.728E+01 -.161E+00 -.357E+01
   0.999E+02 0.116E+03 0.454E+02   -.107E+03 -.116E+03 -.488E+02   0.728E+01 0.161E+00 0.357E+01
   -.999E+02 -.116E+03 0.454E+02   0.107E+03 0.116E+03 -.488E+02   -.728E+01 -.161E+00 0.357E+01
   0.179E+02 0.429E+02 0.111E+02   -.204E+02 -.484E+02 -.133E+02   0.267E+01 0.563E+01 0.230E+01
   -.179E+02 -.429E+02 0.111E+02   0.204E+02 0.484E+02 -.133E+02   -.267E+01 -.563E+01 0.230E+01
   -.179E+02 0.429E+02 -.111E+02   0.204E+02 -.484E+02 0.133E+02   -.267E+01 0.563E+01 -.230E+01
   0.179E+02 -.429E+02 -.111E+02   -.204E+02 0.484E+02 0.133E+02   0.267E+01 -.563E+01 -.230E+01
   0.469E+01 -.492E+02 0.103E+02   -.735E+01 0.553E+02 -.124E+02   0.276E+01 -.645E+01 0.216E+01
   -.469E+01 0.492E+02 0.103E+02   0.735E+01 -.553E+02 -.124E+02   -.276E+01 0.645E+01 0.216E+01
   -.469E+01 -.492E+02 -.103E+02   0.735E+01 0.553E+02 0.124E+02   -.276E+01 -.645E+01 -.216E+01
   0.469E+01 0.492E+02 -.103E+02   -.735E+01 -.553E+02 0.124E+02   0.276E+01 0.645E+01 -.216E+01
   -.505E+02 -.415E+00 -.160E+02   0.572E+02 0.856E-02 0.183E+02   -.709E+01 0.398E+00 -.235E+01
   0.505E+02 0.416E+00 -.160E+02   -.572E+02 -.893E-02 0.183E+02   0.709E+01 -.398E+00 -.235E+01
   0.505E+02 -.415E+00 0.160E+02   -.572E+02 0.813E-02 -.183E+02   0.709E+01 0.398E+00 0.235E+01
   -.505E+02 0.415E+00 0.160E+02   0.572E+02 -.847E-02 -.183E+02   -.709E+01 -.398E+00 0.235E+01
   -.464E+02 0.578E+01 -.228E+02   0.514E+02 -.600E+01 0.256E+02   -.528E+01 0.229E+00 -.289E+01
   0.464E+02 -.578E+01 -.228E+02   -.514E+02 0.600E+01 0.256E+02   0.528E+01 -.229E+00 -.289E+01
   0.464E+02 0.578E+01 0.228E+02   -.514E+02 -.600E+01 -.256E+02   0.528E+01 0.229E+00 0.289E+01
   -.464E+02 -.578E+01 0.228E+02   0.514E+02 0.600E+01 -.256E+02   -.528E+01 -.229E+00 0.289E+01
   -.259E+02 0.471E+02 -.168E+02   0.274E+02 -.526E+02 0.185E+02   -.158E+01 0.569E+01 -.177E+01
   0.259E+02 -.471E+02 -.168E+02   -.274E+02 0.526E+02 0.185E+02   0.158E+01 -.569E+01 -.177E+01
   0.259E+02 0.471E+02 0.168E+02   -.274E+02 -.526E+02 -.185E+02   0.158E+01 0.569E+01 0.177E+01
   -.259E+02 -.471E+02 0.168E+02   0.274E+02 0.526E+02 -.185E+02   -.158E+01 -.569E+01 0.177E+01
   0.229E+02 0.115E+03 -.769E+01   -.303E+02 -.121E+03 0.804E+01   0.747E+01 0.580E+01 -.382E+00
   -.229E+02 -.115E+03 -.769E+01   0.303E+02 0.121E+03 0.804E+01   -.747E+01 -.581E+01 -.382E+00
   -.229E+02 0.115E+03 0.769E+01   0.303E+02 -.121E+03 -.804E+01   -.747E+01 0.581E+01 0.381E+00
   0.229E+02 -.115E+03 0.769E+01   -.303E+02 0.121E+03 -.804E+01   0.747E+01 -.581E+01 0.382E+00
   0.466E+02 -.128E+03 0.294E+02   -.585E+02 0.155E+03 -.395E+02   0.120E+02 -.278E+02 0.102E+02
   -.466E+02 0.128E+03 0.294E+02   0.585E+02 -.155E+03 -.395E+02   -.120E+02 0.278E+02 0.102E+02
   -.466E+02 -.128E+03 -.294E+02   0.585E+02 0.155E+03 0.395E+02   -.120E+02 -.278E+02 -.102E+02
   0.466E+02 0.128E+03 -.294E+02   -.585E+02 -.155E+03 0.395E+02   0.120E+02 0.278E+02 -.102E+02
   -.975E+02 -.900E+02 -.235E+02   0.987E+02 0.952E+02 0.269E+02   -.126E+01 -.526E+01 -.345E+01
   0.975E+02 0.900E+02 -.235E+02   -.987E+02 -.952E+02 0.269E+02   0.126E+01 0.526E+01 -.345E+01
   0.975E+02 -.900E+02 0.235E+02   -.987E+02 0.952E+02 -.269E+02   0.126E+01 -.526E+01 0.345E+01
   -.975E+02 0.900E+02 0.235E+02   0.987E+02 -.952E+02 -.269E+02   -.126E+01 0.526E+01 0.345E+01
   0.225E+03 -.451E+02 0.989E+02   -.265E+03 0.493E+02 -.123E+03   0.408E+02 -.429E+01 0.247E+02
   -.225E+03 0.451E+02 0.989E+02   0.265E+03 -.493E+02 -.123E+03   -.408E+02 0.429E+01 0.247E+02
   -.225E+03 -.451E+02 -.989E+02   0.265E+03 0.493E+02 0.123E+03   -.408E+02 -.429E+01 -.247E+02
   0.225E+03 0.451E+02 -.989E+02   -.265E+03 -.493E+02 0.123E+03   0.408E+02 0.429E+01 -.247E+02
 -----------------------------------------------------------------------------------------------
   -.120E-02 -.153E-03 -.129E-02   0.568E-13 -.156E-12 0.711E-13   0.147E-02 0.170E-03 0.131E-02


 POSITION                                       TOTAL-FORCE (eV/Angst)
 -----------------------------------------------------------------------------------
     12.83107      1.46377      1.23795        -0.156448      0.009168     -0.130581
      6.73493      8.03221      3.14495         0.156912     -0.008363     -0.130805
      0.21292      6.21178      0.66907         0.157681      0.007668      0.131008
      6.30910      3.28421      2.57607        -0.157952     -0.008412      0.131175
      1.70548      2.50687      2.09939        -0.057600      0.062799     -0.043290
      4.81651      6.98914      0.19238         0.057396     -0.063510     -0.043209
     11.33852      7.25484      3.62162         0.057046      0.064369      0.043238
      8.22752      2.24115      1.71462        -0.057835     -0.063501      0.043535
      2.22844      1.26157      2.56715        -0.095714     -0.052976     -0.046619
      4.29357      8.23443      0.66016         0.095461      0.053255     -0.046565
     10.81558      6.00955      3.15385         0.095004     -0.053141      0.046237
      8.75044      3.48644      1.24686        -0.095161      0.053429      0.046316
      1.47709      0.15122      2.33347        -0.085581      0.181169     -0.096018
      5.04491      9.34478      0.42647         0.086613     -0.181030     -0.096576
     11.56691      4.89922      3.38753         0.087637      0.180284      0.097012
      7.99910      4.59678      1.48055        -0.086739     -0.180798      0.096500
     12.90498      8.85152      1.31903         0.100595      0.203531      0.075534
      6.66103      0.64446      3.22604        -0.100236     -0.202873      0.075225
      0.13902      4.10354      0.58797        -0.099959      0.202368     -0.074998
      6.38299      5.39246      2.49498         0.100068     -0.202747     -0.075132
      2.01522      4.53678      1.97546         0.100383     -0.293524      0.081556
      4.50678      4.95923      0.06845        -0.100478      0.293394      0.081537
     11.02878      9.28474      3.74555        -0.100556     -0.293345     -0.081575
      8.53725      0.21125      1.83855         0.100366      0.293106     -0.081450
      3.37049      3.57895      2.61472        -0.309546     -0.009153     -0.098534
      3.15150      5.91705      0.70772         0.309208      0.009199     -0.098436
      9.67350      8.32692      3.10628         0.308785     -0.009175      0.098291
      9.89254      1.16907      1.19929        -0.309650      0.009086      0.098564
      3.17784      1.22154      3.08850        -0.208642      0.005151     -0.110759
      3.34416      8.27447      1.18150         0.208664     -0.005181     -0.110754
      9.86617      5.96953      2.63250         0.208731      0.005201      0.110808
      9.69986      3.52647      0.72550        -0.208932     -0.005164      0.110906
      1.76095      8.64035      2.64051        -0.071594      0.220001     -0.072726
      4.76107      0.85565      0.73350         0.071446     -0.219858     -0.072625
     11.28308      3.89233      3.08050         0.071426      0.220055      0.072632
      8.28295      5.60366      1.17351        -0.071559     -0.220141      0.072734
      0.29137      0.24387      1.68094         0.054207      0.061186     -0.035414
      6.23064      9.25214      3.58793        -0.055423     -0.062507     -0.034595
     12.75265      4.99184      0.22609        -0.056286      0.063455      0.034055
      6.81336      4.50414      2.13309         0.055971     -0.062584      0.034341
      0.51537      2.58763      1.47237         0.101337     -0.264036      0.085540
      6.00662      6.90836      3.37936        -0.101410      0.263930      0.085586
     12.52862      7.33562      0.43465        -0.101647     -0.263627     -0.085652
      7.03740      2.16037      2.34166         0.101751      0.263797     -0.085778
      2.40230      3.63827      2.28936        -0.052130     -0.090993     -0.061863
      4.11967      5.85774      0.38234         0.052798      0.091362     -0.062082
     10.64167      8.38625      3.43164         0.053805     -0.091973      0.062399
      8.92435      1.10975      1.52466        -0.052299      0.091638      0.061810
     11.73478      1.48663      0.61793         0.630144     -0.042848      0.383541
      7.83124      8.00936      2.52495        -0.630375      0.042762      0.383613
      1.30923      6.23463      1.28908        -0.630622     -0.042672     -0.383737
      5.21278      3.26135      3.19607         0.630939      0.042769     -0.383920
 -----------------------------------------------------------------------------------
    total drift:                                0.000265      0.000018      0.000015


--------------------------------------------------------------------------------------------------------



  FREE ENERGIE OF THE ION-ELECTRON SYSTEM (eV)
  ---------------------------------------------------
  free  energy   TOTEN  =      -377.63319470 eV

  energy  without entropy=     -377.63319470  energy(sigma->0) =     -377.63319470



--------------------------------------------------------------------------------------------------------


    POTLOK:  cpu time      0.3684: real time      0.3690


--------------------------------------------------------------------------------------------------------


 stress matrix after NEB project (eV)
      0.00000      0.00000      0.00000
      0.00000      0.00000      0.00000
      0.00000      0.00000      0.00000
  FORCES: max atom, RMS     0.739803    0.297627
  FORCE total and by dimension    2.146219    0.630939
  Stress total and by dimension    0.000000    0.000000
     LOOP+:  cpu time    161.6172: real time    162.0077
    4ORBIT:  cpu time      0.0000: real time      0.0000

 total amount of memory used by VASP MPI-rank0    76207. kBytes
=======================================================================

   base      :      30000. kBytes
   nonl-proj :       6877. kBytes
   fftplans  :       2136. kBytes
   grid      :       5256. kBytes
   one-center:          6. kBytes
   wavefun   :      31932. kBytes

  
  
 General timing and accounting informations for this job:
 ========================================================
  
                  Total CPU time used (sec):      172.120
                            User time (sec):      169.901
                          System time (sec):        2.219
                         Elapsed time (sec):      175.969
  
                   Maximum memory used (kb):      265688.
                   Average memory used (kb):          N/A
  
                          Minor page faults:        67109
                          Major page faults:         1042
                 Voluntary context switches:         3593
