 vasp.6.4.1 05Apr23 (build Jun  6 2023 14:36:51) complex                         
 executed on        HPECrayEX_GCC date 2024.08.20  14:37:17
 running  256 mpi-ranks, with    1 threads/rank, on    2 nodes
 distrk:  each k-point on  256 cores,    1 groups
 distr:  one band on NCORE=  64 cores,    4 groups


--------------------------------------------------------------------------------------------------------


 INCAR:
   ALGO = Conjugate
   NPAR = 4
   ISMEAR = 0
   SIGMA = 0.01
   PREC = Accurate
   EDIFF = 1E-7
   ENCUT = 1000
   ISIF = 0
   GGA = RE
   LUSE_VDW = .TRUE.
   AGGAC = 0.0000
   LASPH = .TRUE.
   LWAVE = .FALSE.
   LCHARGE = .FALSE.

 POTCAR:    PAW_PBE C_h 06Feb2004                 
 POTCAR:    PAW_PBE H_h 06Feb2004                 
 POTCAR:    PAW_PBE N_h 06Feb2004                 
 POTCAR:    PAW_PBE O_h 06Feb2004                 
 -----------------------------------------------------------------------------
|                                                                             |
|               ----> ADVICE to this user running VASP <----                  |
|                                                                             |
|     You have switched on vdW-DFT.                                           |
|     This routine was written and supplied by Jiri Klimes. We recommend      |
|     that you carefully read and cite the following publications:            |
|       J. Klimes, D.R. Bowler, A. Michelides                                 |
|          J. Phys.: Cond Matt. 22 022201 (2010)                              |
|       J. Klimes, D.R. Bowler, A. Michelides                                 |
|          Phys. Rev. B. 83, 195131 (2011)                                    |
|     and references therein.                                                 |
|                                                                             |
 -----------------------------------------------------------------------------

 POTCAR:    PAW_PBE C_h 06Feb2004                 
   VRHFIN =C: s2p2                                                                                  
   LEXCH  = PE                                                                                      
   EATOM  =   147.1560 eV,   10.8157 Ry                                                             
                                                                                                    
   TITEL  = PAW_PBE C_h 06Feb2004                                                                   
   LULTRA =        F    use ultrasoft PP ?                                                          
   IUNSCR =        1    unscreen: 0-lin 1-nonlin 2-no                                               
   RPACOR =    0.800    partial core radius                                                         
   POMASS =   12.011; ZVAL   =    4.000    mass and valenz                                          
   RCORE  =    1.100    outmost cutoff radius                                                       
   RWIGS  =    1.630; RWIGS  =    0.863    wigner-seitz radius (au A)                               
   ENMAX  =  700.000; ENMIN  =  500.000 eV                                                          
   ICORE  =        2    local potential                                                             
   LCOR   =        T    correct aug charges                                                         
   LPAW   =        T    paw PP                                                                      
   EAUG   =  946.768                                                                                
   DEXC   =    0.000                                                                                
   RMAX   =    1.128    core radius for proj-oper                                                   
   RAUG   =    1.300    factor for augmentation sphere                                              
   RDEP   =    1.162    radius for radial grids                                                     
   RDEPT  =    1.088    core radius for aug-charge                                                  
                                                                                                    
   Atomic configuration                                                                             
    4 entries                                                                                       
     n  l   j            E        occ.                                                              
     1  0  0.50      -273.3789   2.0000                                                             
     2  0  0.50       -13.7508   2.0000                                                             
     2  1  0.50        -5.2854   2.0000                                                             
     3  2  1.50        -5.4423   0.0000                                                             
   Description                                                                                      
     l       E           TYP  RCUT    TYP  RCUT                                                     
     0    -13.7508458     23  1.100                                                                 
     0     -8.2022199     23  1.100                                                                 
     1     -5.2854383     23  1.100                                                                 
     1      1.1560700     23  1.100                                                                 
     2     -5.4423304      7  1.100                                                                 
  local pseudopotential read in
  partial core-charges read in
  partial kinetic energy density read in
  atomic valenz-charges read in
  non local Contribution for L=           0  read in
    real space projection operators read in
  non local Contribution for L=           0  read in
    real space projection operators read in
  non local Contribution for L=           1  read in
    real space projection operators read in
  non local Contribution for L=           1  read in
    real space projection operators read in
    PAW grid and wavefunctions read in

   number of l-projection  operators is LMAX  =           4
   number of lm-projection operators is LMMAX =           8

 POTCAR:    PAW_PBE H_h 06Feb2004                 
   VRHFIN =H: ultrasoft test                                                                        
   LEXCH  = PE                                                                                      
   EATOM  =    12.4884 eV,    0.9179 Ry                                                             
                                                                                                    
   TITEL  = PAW_PBE H_h 06Feb2004                                                                   
   LULTRA =        F    use ultrasoft PP ?                                                          
   IUNSCR =        0    unscreen: 0-lin 1-nonlin 2-no                                               
   RPACOR =    0.000    partial core radius                                                         
   POMASS =    1.000; ZVAL   =    1.000    mass and valenz                                          
   RCORE  =    0.800    outmost cutoff radius                                                       
   RWIGS  =    0.700; RWIGS  =    0.370    wigner-seitz radius (au A)                               
   ENMAX  =  700.000; ENMIN  =  350.000 eV                                                          
   RCLOC  =    0.701    cutoff for local pot                                                        
   LCOR   =        T    correct aug charges                                                         
   LPAW   =        T    paw PP                                                                      
   EAUG   = 1000.000                                                                                
   RMAX   =    0.819    core radius for proj-oper                                                   
   RAUG   =    1.000    factor for augmentation sphere                                              
   RDEP   =    0.817    radius for radial grids                                                     
   RDEPT  =    0.817    core radius for aug-charge                                                  
                                                                                                    
   Atomic configuration                                                                             
    2 entries                                                                                       
     n  l   j            E        occ.                                                              
     1  0  0.50        -6.4927   1.0000                                                             
     2  1  0.50        -3.4015   0.0000                                                             
   Description                                                                                      
     l       E           TYP  RCUT    TYP  RCUT                                                     
     0     -6.4927493     23  0.800                                                                 
     0      6.8029130     23  0.800                                                                 
     1     -6.8029130     23  0.800                                                                 
  local pseudopotential read in
  atomic valenz-charges read in
  non local Contribution for L=           0  read in
    real space projection operators read in
  non local Contribution for L=           0  read in
    real space projection operators read in
  non local Contribution for L=           1  read in
    real space projection operators read in
    PAW grid and wavefunctions read in

   number of l-projection  operators is LMAX  =           3
   number of lm-projection operators is LMMAX =           5

 POTCAR:    PAW_PBE N_h 06Feb2004                 
   VRHFIN =N: s2p3                                                                                  
   LEXCH  = PE                                                                                      
   EATOM  =   264.5486 eV,   19.4438 Ry                                                             
                                                                                                    
   TITEL  = PAW_PBE N_h 06Feb2004                                                                   
   LULTRA =        F    use ultrasoft PP ?                                                          
   IUNSCR =        1    unscreen: 0-lin 1-nonlin 2-no                                               
   RPACOR =    0.800    partial core radius                                                         
   POMASS =   14.001; ZVAL   =    5.000    mass and valenz                                          
   RCORE  =    1.100    outmost cutoff radius                                                       
   RWIGS  =    1.480; RWIGS  =    0.783    wigner-seitz radius (au A)                               
   ENMAX  =  700.000; ENMIN  =  500.000 eV                                                          
   ICORE  =        2    local potential                                                             
   LCOR   =        T    correct aug charges                                                         
   LPAW   =        T    paw PP                                                                      
   EAUG   =  904.640                                                                                
   DEXC   =    0.000                                                                                
   RMAX   =    1.127    core radius for proj-oper                                                   
   RAUG   =    1.300    factor for augmentation sphere                                              
   RDEP   =    1.115    radius for radial grids                                                     
   RDEPT  =    1.106    core radius for aug-charge                                                  
                                                                                                    
   Atomic configuration                                                                             
    4 entries                                                                                       
     n  l   j            E        occ.                                                              
     1  0  0.50      -384.7179   2.0000                                                             
     2  0  0.50       -18.5828   2.0000                                                             
     2  1  0.50        -7.0898   3.0000                                                             
     3  2  1.50        -6.8029   0.0000                                                             
   Description                                                                                      
     l       E           TYP  RCUT    TYP  RCUT                                                     
     0    -18.5828117     23  1.100                                                                 
     0    -15.0750597     23  1.100                                                                 
     1     -7.0897851     23  1.100                                                                 
     1     -1.9663412     23  1.100                                                                 
     2     -6.8029130      7  1.100                                                                 
  local pseudopotential read in
  partial core-charges read in
  partial kinetic energy density read in
  kinetic energy density of atom read in
  atomic valenz-charges read in
  non local Contribution for L=           0  read in
    real space projection operators read in
  non local Contribution for L=           0  read in
    real space projection operators read in
  non local Contribution for L=           1  read in
    real space projection operators read in
  non local Contribution for L=           1  read in
    real space projection operators read in
    PAW grid and wavefunctions read in

   number of l-projection  operators is LMAX  =           4
   number of lm-projection operators is LMMAX =           8

 POTCAR:    PAW_PBE O_h 06Feb2004                 
   VRHFIN =O: s2p4                                                                                  
   LEXCH  = PE                                                                                      
   EATOM  =   432.3788 eV,   31.7789 Ry                                                             
                                                                                                    
   TITEL  = PAW_PBE O_h 06Feb2004                                                                   
   LULTRA =        F    use ultrasoft PP ?                                                          
   IUNSCR =        1    unscreen: 0-lin 1-nonlin 2-no                                               
   RPACOR =    0.800    partial core radius                                                         
   POMASS =   16.000; ZVAL   =    6.000    mass and valenz                                          
   RCORE  =    1.100    outmost cutoff radius                                                       
   RWIGS  =    1.400; RWIGS  =    0.741    wigner-seitz radius (au A)                               
   ENMAX  =  700.000; ENMIN  =  500.000 eV                                                          
   ICORE  =        2    local potential                                                             
   LCOR   =        T    correct aug charges                                                         
   LPAW   =        T    paw PP                                                                      
   EAUG   =  888.804                                                                                
   DEXC   =    0.000                                                                                
   RMAX   =    1.128    core radius for proj-oper                                                   
   RAUG   =    1.300    factor for augmentation sphere                                              
   RDEP   =    1.125    radius for radial grids                                                     
   RDEPT  =    1.088    core radius for aug-charge                                                  
                                                                                                    
   Atomic configuration                                                                             
    4 entries                                                                                       
     n  l   j            E        occ.                                                              
     1  0  0.50      -514.6923   2.0000                                                             
     2  0  0.50       -23.9615   2.0000                                                             
     2  1  0.50        -9.0305   4.0000                                                             
     3  2  1.50        -9.5241   0.0000                                                             
   Description                                                                                      
     l       E           TYP  RCUT    TYP  RCUT                                                     
     0    -23.9615319     23  1.100                                                                 
     0    -25.3221145     23  1.100                                                                 
     1     -9.0304911     23  1.100                                                                 
     1     -5.4802209     23  1.100                                                                 
     2     -9.5240782      7  1.100                                                                 
  local pseudopotential read in
  partial core-charges read in
  partial kinetic energy density read in
  atomic valenz-charges read in
  non local Contribution for L=           0  read in
    real space projection operators read in
  non local Contribution for L=           0  read in
    real space projection operators read in
  non local Contribution for L=           1  read in
    real space projection operators read in
  non local Contribution for L=           1  read in
    real space projection operators read in
    PAW grid and wavefunctions read in

   number of l-projection  operators is LMAX  =           4
   number of lm-projection operators is LMMAX =           8

 -----------------------------------------------------------------------------
|                                                                             |
|               ----> ADVICE to this user running VASP <----                  |
|                                                                             |
|     You have a (more or less) 'large supercell' and for larger cells it     |
|     might be more efficient to use real-space projection operators.         |
|     Therefore, try LREAL= Auto in the INCAR file.                           |
|     Mind: For very accurate calculation, you might also keep the            |
|     reciprocal projection scheme (i.e. LREAL=.FALSE.).                      |
|                                                                             |
 -----------------------------------------------------------------------------

 -----------------------------------------------------------------------------
|                                                                             |
|               ----> ADVICE to this user running VASP <----                  |
|                                                                             |
|     You enforced a specific xc type in the INCAR file but a different       |
|     type was found in the POTCAR file.                                      |
|     I HOPE YOU KNOW WHAT YOU ARE DOING!                                     |
|                                                                             |
 -----------------------------------------------------------------------------

  PAW_PBE C_h 06Feb2004                 :
 energy of atom  1       EATOM= -147.1560
 kinetic energy error for atom=    0.0031 (will be added to EATOM!!)
  PAW_PBE H_h 06Feb2004                 :
 energy of atom  2       EATOM=  -12.4884
 kinetic energy error for atom=    0.0006 (will be added to EATOM!!)
  PAW_PBE N_h 06Feb2004                 :
 energy of atom  3       EATOM= -264.5486
 kinetic energy error for atom=    0.0081 (will be added to EATOM!!)
  PAW_PBE O_h 06Feb2004                 :
 energy of atom  4       EATOM= -432.3788
 kinetic energy error for atom=    0.0171 (will be added to EATOM!!)


 POSCAR:  C  H  N  O
  positions in cartesian coordinates
  No initial velocities read in
 exchange correlation table for  LEXCH =       40
   RHO(1)=    0.500       N(1)  =     2000
   RHO(2)=  100.500       N(2)  =     4000

 VTST: version 4.1, (05/19/21)

 CHAIN: initializing optimizer
 
 OPT: Using VASP Dynamics algorithm
 CHAIN: Read ICHAIN            0

 POSCAR:  C  H  N  O
  positions in cartesian coordinates
  No initial velocities read in



--------------------------------------------------------------------------------------------------------


 ion  position               nearest neighbor table
   1  0.984  0.154  0.325-  49 1.26  41 1.36  37 1.39
   2  0.516  0.846  0.825-  50 1.26  42 1.36  38 1.39
   3  0.016  0.654  0.175-  51 1.26  43 1.36  39 1.39
   4  0.484  0.346  0.675-  52 1.26  44 1.36  40 1.39
   5  0.131  0.264  0.550-  45 1.34  41 1.35   9 1.43
   6  0.369  0.736  0.050-  46 1.34  42 1.35  10 1.43
   7  0.869  0.764  0.950-  47 1.34  43 1.35  11 1.43
   8  0.631  0.236  0.450-  48 1.34  44 1.35  12 1.43
   9  0.171  0.133  0.673-  29 1.08  13 1.36   5 1.43
  10  0.329  0.867  0.173-  30 1.08  14 1.36   6 1.43
  11  0.829  0.633  0.827-  31 1.08  15 1.36   7 1.43
  12  0.671  0.367  0.327-  32 1.08  16 1.36   8 1.43
  13  0.113  0.016  0.612-  33 1.09  37 1.36   9 1.36
  14  0.387  0.984  0.112-  34 1.09  38 1.36  10 1.36
  15  0.887  0.516  0.888-  35 1.09  39 1.36  11 1.36
  16  0.613  0.484  0.388-  36 1.09  40 1.36  12 1.36
  17  0.989  0.932  0.346-  37 1.05
  18  0.511  0.068  0.846-  38 1.05
  19  0.011  0.432  0.154-  39 1.05
  20  0.489  0.568  0.654-  40 1.05
  21  0.154  0.478  0.518-  45 1.03
  22  0.346  0.522  0.018-  46 1.03
  23  0.846  0.978  0.982-  47 1.03
  24  0.654  0.022  0.482-  48 1.03
  25  0.258  0.377  0.686-  45 1.02
  26  0.242  0.623  0.186-  46 1.02
  27  0.742  0.877  0.814-  47 1.02
  28  0.758  0.123  0.314-  48 1.02
  29  0.244  0.129  0.810-   9 1.08
  30  0.256  0.871  0.310-  10 1.08
  31  0.756  0.629  0.690-  11 1.08
  32  0.744  0.371  0.190-  12 1.08
  33  0.135  0.910  0.692-  13 1.09
  34  0.365  0.090  0.192-  14 1.09
  35  0.865  0.410  0.808-  15 1.09
  36  0.635  0.590  0.308-  16 1.09
  37  0.022  0.026  0.441-  17 1.05  13 1.36   1 1.39
  38  0.478  0.974  0.941-  18 1.05  14 1.36   2 1.39
  39  0.978  0.526  0.059-  19 1.05  15 1.36   3 1.39
  40  0.522  0.474  0.559-  20 1.05  16 1.36   4 1.39
  41  0.040  0.272  0.386-   5 1.35   1 1.36
  42  0.460  0.728  0.886-   6 1.35   2 1.36
  43  0.960  0.772  0.114-   7 1.35   3 1.36
  44  0.540  0.228  0.614-   8 1.35   4 1.36
  45  0.184  0.383  0.600-  25 1.02  21 1.03   5 1.34
  46  0.316  0.617  0.100-  26 1.02  22 1.03   6 1.34
  47  0.816  0.883  0.900-  27 1.02  23 1.03   7 1.34
  48  0.684  0.117  0.400-  28 1.02  24 1.03   8 1.34
  49  0.900  0.157  0.162-   1 1.26
  50  0.600  0.843  0.662-   2 1.26
  51  0.100  0.657  0.338-   3 1.26
  52  0.400  0.343  0.838-   4 1.26

  LATTYP: Found a simple orthorhombic cell.
 ALAT       =     3.8140000000
 B/A-ratio  =     2.4897745149
 C/A-ratio  =     3.4200314630
  
  Lattice vectors:
  
 A1 = (   0.0000000000,   0.0000000000,  -3.8140000000)
 A2 = (   0.0000000000,   9.4960000000,   0.0000000000)
 A3 = (  13.0440000000,   0.0000000000,   0.0000000000)


Analysis of symmetry for initial positions (statically):
=====================================================================
 Subroutine PRICEL returns:
 Original cell was already a primitive cell.
 

 Routine SETGRP: Setting up the symmetry group for a 
 simple orthorhombic supercell.


 Subroutine GETGRP returns: Found  4 space group operations
 (whereof  1 operations were pure point group operations)
 out of a pool of  8 trial point group operations.


The static configuration has the point symmetry C_1 .
 The point group associated with its full space group is D_2 .


Analysis of symmetry for dynamics (positions and initial velocities):
=====================================================================
 Subroutine PRICEL returns:
 Original cell was already a primitive cell.
 

 Routine SETGRP: Setting up the symmetry group for a 
 simple orthorhombic supercell.


 Subroutine GETGRP returns: Found  4 space group operations
 (whereof  1 operations were pure point group operations)
 out of a pool of  8 trial point group operations.


The dynamic configuration has the point symmetry C_1 .
 The point group associated with its full space group is D_2 .


 Subroutine INISYM returns: Found  4 space group operations
 (whereof  1 operations are pure point group operations),
 and found     1 'primitive' translations


----------------------------------------------------------------------------------------

                                     Primitive cell                                     

  volume of cell :     472.4243

  direct lattice vectors                    reciprocal lattice vectors
    13.044000000  0.000000000  0.000000000     0.076663600  0.000000000  0.000000000
     0.000000000  9.496000000  0.000000000     0.000000000  0.105307498  0.000000000
     0.000000000  0.000000000  3.814000000     0.000000000  0.000000000  0.262191924

  length of vectors
    13.044000000  9.496000000  3.814000000     0.076663600  0.105307498  0.262191924

  position of ions in fractional coordinates (direct lattice)
     0.983676402  0.154145791  0.324579529
     0.516323865  0.845852329  0.824579509
     0.016323080  0.654147019  0.175424953
     0.483678521  0.345852244  0.675424567
     0.130748206  0.263992227  0.550443598
     0.369250980  0.736009151  0.050440365
     0.869251742  0.763988598  0.949559299
     0.630750938  0.236009374  0.449560667
     0.170839958  0.132852545  0.673087278
     0.329160580  0.867147547  0.173088262
     0.829161293  0.632851093  0.826913560
     0.670840586  0.367147846  0.326915498
     0.113238953  0.015925081  0.611815714
     0.386761117  0.984074919  0.111816481
     0.886760642  0.515924186  0.888183325
     0.613240019  0.484075173  0.388188014
     0.989341936  0.932131625  0.345840050
     0.510658808  0.067866602  0.845841071
     0.010658064  0.432133190  0.154161322
     0.489342656  0.567866632  0.654162827
     0.154493646  0.477757344  0.517949666
     0.345505786  0.522244577  0.017947583
     0.845505673  0.977753104  0.982052417
     0.654496648  0.022246357  0.482053809
     0.258393829  0.376890470  0.685559635
     0.241605051  0.623109754  0.185558125
     0.741605081  0.876887398  0.814442623
     0.758397988  0.123112132  0.314443873
     0.243625035  0.128637538  0.809779717
     0.256375336  0.871363320  0.309780140
     0.756376145  0.628635813  0.690219412
     0.743626153  0.371363769  0.190220910
     0.135000959  0.909894070  0.692319390
     0.365000678  0.090106066  0.192318415
     0.865001205  0.409892014  0.807681796
     0.635000525  0.590107079  0.307683780
     0.022337554  0.025680890  0.440729304
     0.477663641  0.974319670  0.940725121
     0.977664090  0.525678503  0.059278179
     0.522336899  0.474319803  0.559278494
     0.039510088  0.272497350  0.386044197
     0.460489051  0.727502488  0.886040923
     0.960489383  0.772496010  0.113961013
     0.539512792  0.227502772  0.613963585
     0.184168764  0.383137378  0.600252224
     0.315829073  0.616863701  0.100247370
     0.815828668  0.883134832  0.899748520
     0.684172902  0.116864538  0.399753557
     0.899630335  0.156552925  0.162017031
     0.600370825  0.843445277  0.662021322
     0.100370043  0.656553309  0.337986290
     0.399630266  0.343444327  0.837983551

  ion indices of the primitive-cell ions
   primitive index   ion index
                 1           1
                 2           2
                 3           3
                 4           4
                 5           5
                 6           6
                 7           7
                 8           8
                 9           9
                10          10
                11          11
                12          12
                13          13
                14          14
                15          15
                16          16
                17          17
                18          18
                19          19
                20          20
                21          21
                22          22
                23          23
                24          24
                25          25
                26          26
                27          27
                28          28
                29          29
                30          30
                31          31
                32          32
                33          33
                34          34
                35          35
                36          36
                37          37
                38          38
                39          39
                40          40
                41          41
                42          42
                43          43
                44          44
                45          45
                46          46
                47          47
                48          48
                49          49
                50          50
                51          51
                52          52

----------------------------------------------------------------------------------------



 KPOINTS: auto                                    

Automatic generation of k-mesh.
 Grid dimensions read from file:
 generate k-points for:    2    3    7

 Generating k-lattice:

  Cartesian coordinates                     Fractional coordinates (reciprocal lattice)
     0.038331800  0.000000000  0.000000000     0.500000000  0.000000000  0.000000000
     0.000000000  0.035102499  0.000000000     0.000000000  0.333333333  0.000000000
     0.000000000  0.000000000  0.037455989     0.000000000  0.000000000  0.142857143

  Length of vectors
     0.038331800  0.035102499  0.037455989

  Shift w.r.t. Gamma in fractional coordinates (k-lattice)
     0.000000000  0.000000000  0.000000000

 
 Subroutine IBZKPT returns following result:
 ===========================================
 
 Found     16 irreducible k-points:
 
 Following reciprocal coordinates:
            Coordinates               Weight
  0.000000  0.000000  0.000000      1.000000
  0.500000  0.000000  0.000000      1.000000
  0.000000  0.333333  0.000000      2.000000
  0.500000  0.333333  0.000000      2.000000
  0.000000  0.000000  0.142857      2.000000
  0.500000  0.000000  0.142857      2.000000
  0.000000  0.333333  0.142857      4.000000
  0.500000  0.333333  0.142857      4.000000
  0.000000  0.000000  0.285714      2.000000
  0.500000  0.000000  0.285714      2.000000
  0.000000  0.333333  0.285714      4.000000
  0.500000  0.333333  0.285714      4.000000
  0.000000  0.000000  0.428571      2.000000
  0.500000  0.000000  0.428571      2.000000
  0.000000  0.333333  0.428571      4.000000
  0.500000  0.333333  0.428571      4.000000
 
 Following cartesian coordinates:
            Coordinates               Weight
  0.000000  0.000000  0.000000      1.000000
  0.038332  0.000000  0.000000      1.000000
  0.000000  0.035102  0.000000      2.000000
  0.038332  0.035102  0.000000      2.000000
  0.000000  0.000000  0.037456      2.000000
  0.038332  0.000000  0.037456      2.000000
  0.000000  0.035102  0.037456      4.000000
  0.038332  0.035102  0.037456      4.000000
  0.000000  0.000000  0.074912      2.000000
  0.038332  0.000000  0.074912      2.000000
  0.000000  0.035102  0.074912      4.000000
  0.038332  0.035102  0.074912      4.000000
  0.000000  0.000000  0.112368      2.000000
  0.038332  0.000000  0.112368      2.000000
  0.000000  0.035102  0.112368      4.000000
  0.038332  0.035102  0.112368      4.000000
 


--------------------------------------------------------------------------------------------------------




 Dimension of arrays:
   k-points           NKPTS =     16   k-points in BZ     NKDIM =     16   number of bands    NBANDS=    112
   number of dos      NEDOS =    301   number of ions     NIONS =     52
   non local maximal  LDIM  =      4   non local SUM 2l+1 LMDIM =      8
   total plane-waves  NPLWV = 548800
   max r-space proj   IRMAX =      1   max aug-charges    IRDMAX=   8671
   dimension x,y,z NGX =   140 NGY =   98 NGZ =   40
   dimension x,y,z NGXF=   280 NGYF=  196 NGZF=   80
   support grid    NGXF=   280 NGYF=  196 NGZF=   80
   ions per type =              16  20  12   4
   NGX,Y,Z   is equivalent  to a cutoff of  17.84, 17.16, 17.44 a.u.
   NGXF,Y,Z  is equivalent  to a cutoff of  35.69, 34.31, 34.87 a.u.

 SYSTEM =  unknown system                          
 POSCAR =   C  H  N  O                             

 Startparameter for this run:
   NWRITE =      2    write-flag & timer
   PREC   = accura    normal or accurate (medium, high low for compatibility)
   ISTART =      0    job   : 0-new  1-cont  2-samecut
   ICHARG =      2    charge: 1-file 2-atom 10-const
   ISPIN  =      1    spin polarized calculation?
   LNONCOLLINEAR =      F non collinear calculations
   LSORBIT =      F    spin-orbit coupling
   INIWAV =      1    electr: 0-lowe 1-rand  2-diag
   LASPH  =      T    aspherical Exc in radial PAW
 Electronic Relaxation 1
   ENCUT  = 1000.0 eV  73.50 Ry    8.57 a.u.  33.63 24.48  9.83*2*pi/ulx,y,z
   ENINI  = 1000.0     initial cutoff
   ENAUG  = 1000.0 eV  augmentation charge cutoff
   NELM   =     60;   NELMIN=  2; NELMDL= -5     # of ELM steps 
   EDIFF  = 0.1E-06   stopping-criterion for ELM
   LREAL  =      F    real-space projection
   NLSPLINE    = F    spline interpolate recip. space projectors
   LCOMPAT=      F    compatible to vasp.4.4
   GGA_COMPAT  = T    GGA compatible to vasp.4.4-vasp.4.6
   LMAXPAW     = -100 max onsite density
   LMAXMIX     =    2 max onsite mixed and CHGCAR
   VOSKOWN=      0    Vosko Wilk Nusair interpolation
   ROPT   =    0.00000   0.00000   0.00000   0.00000
 Ionic relaxation
   EDIFFG = 0.1E-05   stopping-criterion for IOM
   NSW    =      0    number of steps for IOM
   NBLOCK =      1;   KBLOCK =      1    inner block; outer block 
   IBRION =     -1    ionic relax: 0-MD 1-quasi-New 2-CG
   NFREE  =      0    steps in history (QN), initial steepest desc. (CG)
   ISIF   =      0    stress and relaxation
   IWAVPR =     10    prediction:  0-non 1-charg 2-wave 3-comb
   ISYM   =      2    0-nonsym 1-usesym 2-fastsym
   LCORR  =      T    Harris-Foulkes like correction to forces

   POTIM  = 0.5000    time-step for ionic-motion
   TEIN   =    0.0    initial temperature
   TEBEG  =    0.0;   TEEND  =   0.0 temperature during run
   SMASS  =  -3.00    Nose mass-parameter (am)
   estimated Nose-frequenzy (Omega)   =  0.10E-29 period in steps = 0.13E+47 mass=  -0.389E-26a.u.
   SCALEE = 1.0000    scale energy and forces
   NPACO  =    256;   APACO  = 10.0  distance and # of slots for P.C.
   PSTRESS=    0.0 pullay stress

  Mass of Ions in am
   POMASS =  12.01  1.00 14.00 16.00
  Ionic Valenz
   ZVAL   =   4.00  1.00  5.00  6.00
  Atomic Wigner-Seitz radii
   RWIGS  =  -1.00 -1.00 -1.00 -1.00
  virtual crystal weights 
   VCA    =   1.00  1.00  1.00  1.00
   NELECT =     168.0000    total number of electrons
   NUPDOWN=      -1.0000    fix difference up-down

 DOS related values:
   EMIN   =  10.00;   EMAX   =-10.00  energy-range for DOS
   EFERMI =   0.00;   METHOD = LEGACY      
   ISMEAR =     0;   SIGMA  =   0.01  broadening in eV -4-tet -1-fermi 0-gaus

 Electronic relaxation 2 (details)
   IALGO  =     58    algorithm
   LDIAG  =      T    sub-space diagonalisation (order eigenvalues)
   LSUBROT=      F    optimize rotation matrix (better conditioning)
   TURBO    =      0    0=normal 1=particle mesh
   IRESTART =      0    0=no restart 2=restart with 2 vectors
   NREBOOT  =      0    no. of reboots
   NMIN     =      0    reboot dimension
   EREF     =   0.00    reference energy to select bands
   IMIX   =      4    mixing-type and parameters
     AMIX     =   0.40;   BMIX     =  1.00
     AMIX_MAG =   1.60;   BMIX_MAG =  1.00
     AMIN     =   0.10
     WC   =   100.;   INIMIX=   1;  MIXPRE=   1;  MAXMIX= -45

 Intra band minimization:
   WEIMIN = 0.0000     energy-eigenvalue tresh-hold
   EBREAK =  0.22E-09  absolut break condition
   DEPER  =   0.30     relativ break condition  

   TIME   =   0.40     timestep for ELM

  volume/ion in A,a.u.               =       9.09        61.31
  Fermi-wavevector in a.u.,A,eV,Ry     =   1.159847  2.191792 18.303156  1.345244
  Thomas-Fermi vector in A             =   2.296435

 Write flags
   LWAVE        =      F    write WAVECAR
   LDOWNSAMPLE  =      F    k-point downsampling of WAVECAR
   LCHARG       =      T    write CHGCAR
   LVTOT        =      F    write LOCPOT, total local potential
   LVHAR        =      F    write LOCPOT, Hartree potential only
   LELF         =      F    write electronic localiz. function (ELF)
   LORBIT       =      0    0 simple, 1 ext, 2 COOP (PROOUT), +10 PAW based schemes


 Dipole corrections
   LMONO  =      F    monopole corrections only (constant potential shift)
   LDIPOL =      F    correct potential (dipole corrections)
   IDIPOL =      0    1-x, 2-y, 3-z, 4-all directions 
   EPSILON=  1.0000000 bulk dielectric constant

 Exchange correlation treatment:
   GGA     =    RE    GGA type
   LEXCH   =    40    internal setting for exchange type
   LIBXC   =     F    Libxc                    
   VOSKOWN =     0    Vosko Wilk Nusair interpolation
   LHFCALC =     F    Hartree Fock is set to
   LHFONE  =     F    Hartree Fock one center treatment
   AEXX    =    0.0000 exact exchange contribution

 vdW DFT:
   LUSE_VDW   =     T    switch on vdW DFT
   IVDW_NL    =     1    kernel type
   LSPIN_VDW  =     F    use spin-polarized vdW DFT
   Zab_VDW    =-.8491    correlation parameter
   PARAM1     =0.1234
   PARAM2     =1.0000
   PARAM3     =0.0000
   -- rVV10 --
   BPARAM     = 6.3000
   CPARAM     = 0.0093

 Linear response parameters
   LEPSILON=     F    determine dielectric tensor
   LRPA    =     F    only Hartree local field effects (RPA)
   LNABLA  =     F    use nabla operator in PAW spheres
   LVEL    =     F    velocity operator in full k-point grid
   CSHIFT  =0.1000    complex shift for real part using Kramers Kronig
   OMEGAMAX=  -1.0    maximum frequency
   DEG_THRESHOLD= 0.2000000E-02 threshold for treating states as degnerate
   RTIME   =   -0.100 relaxation time in fs
  (WPLASMAI=    0.000 imaginary part of plasma frequency in eV, 0.658/RTIME)
   DFIELD  = 0.0000000 0.0000000 0.0000000 field for delta impulse in time

  Optional k-point grid parameters
   LKPOINTS_OPT  =     F    use optional k-point grid
   KPOINTS_OPT_MODE=     1    mode for optional k-point grid

 Orbital magnetization related:
   ORBITALMAG=     F  switch on orbital magnetization
   LCHIMAG   =     F  perturbation theory with respect to B field
   DQ        =  0.001000  dq finite difference perturbation B field
   LLRAUG    =     F  two centre corrections for induced B field
   LBONE     =     F  B-component reconstruction in AE one-centre
   LVGVCALC  =     T  calculate vGv susceptibility
   LVGVAPPL  =     F  apply vGv susceptibility instead of pGv for G=0

 Random number generation:
   RANDOM_GENERATOR = DEFAULT
   PCG_SEED         = not used


--------------------------------------------------------------------------------------------------------


 Static calculation
 charge density and potential will be updated during run
 non-spin polarized calculation
 Conjugate gradient for all bands (Freysoldt, et al. PRB 79, 241103 (2009))
 preconditioned conjugated gradient                                        
 perform sub-space diagonalisation
    before iterative eigenvector-optimisation
 modified Broyden-mixing scheme, WC =      100.0
 initial mixing is a Kerker type mixing with AMIX =  0.4000 and BMIX =      1.0000
 Hartree-type preconditioning will be used
 using additional bands           28
 reciprocal scheme for non local part
 use partial core corrections
 no Harris-corrections to forces 
 use gradient corrections 
 use of overlap-Matrix (Vanderbilt PP)
 Gauss-broadening in eV      SIGMA  =   0.01


--------------------------------------------------------------------------------------------------------


  energy-cutoff  :     1000.00
  volume of cell :      472.42
      direct lattice vectors                 reciprocal lattice vectors
    13.044000000  0.000000000  0.000000000     0.076663600  0.000000000  0.000000000
     0.000000000  9.496000000  0.000000000     0.000000000  0.105307498  0.000000000
     0.000000000  0.000000000  3.814000000     0.000000000  0.000000000  0.262191924

  length of vectors
    13.044000000  9.496000000  3.814000000     0.076663600  0.105307498  0.262191924



 k-points in units of 2pi/SCALE and weight: auto                                    
   0.00000000  0.00000000  0.00000000       0.024
   0.03833180  0.00000000  0.00000000       0.024
   0.00000000  0.03510250  0.00000000       0.048
   0.03833180  0.03510250  0.00000000       0.048
   0.00000000  0.00000000  0.03745599       0.048
   0.03833180  0.00000000  0.03745599       0.048
   0.00000000  0.03510250  0.03745599       0.095
   0.03833180  0.03510250  0.03745599       0.095
   0.00000000  0.00000000  0.07491198       0.048
   0.03833180  0.00000000  0.07491198       0.048
   0.00000000  0.03510250  0.07491198       0.095
   0.03833180  0.03510250  0.07491198       0.095
   0.00000000  0.00000000  0.11236797       0.048
   0.03833180  0.00000000  0.11236797       0.048
   0.00000000  0.03510250  0.11236797       0.095
   0.03833180  0.03510250  0.11236797       0.095

 k-points in reciprocal lattice and weights: auto                                    
   0.00000000  0.00000000  0.00000000       0.024
   0.50000000  0.00000000  0.00000000       0.024
   0.00000000  0.33333333  0.00000000       0.048
   0.50000000  0.33333333  0.00000000       0.048
   0.00000000  0.00000000  0.14285714       0.048
   0.50000000  0.00000000  0.14285714       0.048
   0.00000000  0.33333333  0.14285714       0.095
   0.50000000  0.33333333  0.14285714       0.095
   0.00000000  0.00000000  0.28571429       0.048
   0.50000000  0.00000000  0.28571429       0.048
   0.00000000  0.33333333  0.28571429       0.095
   0.50000000  0.33333333  0.28571429       0.095
   0.00000000  0.00000000  0.42857143       0.048
   0.50000000  0.00000000  0.42857143       0.048
   0.00000000  0.33333333  0.42857143       0.095
   0.50000000  0.33333333  0.42857143       0.095

 position of ions in fractional coordinates (direct lattice) 
   0.98367640  0.15414579  0.32457953
   0.51632386  0.84585233  0.82457951
   0.01632308  0.65414702  0.17542495
   0.48367852  0.34585224  0.67542457
   0.13074821  0.26399223  0.55044360
   0.36925098  0.73600915  0.05044037
   0.86925174  0.76398860  0.94955930
   0.63075094  0.23600937  0.44956067
   0.17083996  0.13285254  0.67308728
   0.32916058  0.86714755  0.17308826
   0.82916129  0.63285109  0.82691356
   0.67084059  0.36714785  0.32691550
   0.11323895  0.01592508  0.61181571
   0.38676112  0.98407492  0.11181648
   0.88676064  0.51592419  0.88818332
   0.61324002  0.48407517  0.38818801
   0.98934194  0.93213163  0.34584005
   0.51065881  0.06786660  0.84584107
   0.01065806  0.43213319  0.15416132
   0.48934266  0.56786663  0.65416283
   0.15449365  0.47775734  0.51794967
   0.34550579  0.52224458  0.01794758
   0.84550567  0.97775310  0.98205242
   0.65449665  0.02224636  0.48205381
   0.25839383  0.37689047  0.68555963
   0.24160505  0.62310975  0.18555812
   0.74160508  0.87688740  0.81444262
   0.75839799  0.12311213  0.31444387
   0.24362503  0.12863754  0.80977972
   0.25637534  0.87136332  0.30978014
   0.75637615  0.62863581  0.69021941
   0.74362615  0.37136377  0.19022091
   0.13500096  0.90989407  0.69231939
   0.36500068  0.09010607  0.19231841
   0.86500121  0.40989201  0.80768180
   0.63500052  0.59010708  0.30768378
   0.02233755  0.02568089  0.44072930
   0.47766364  0.97431967  0.94072512
   0.97766409  0.52567850  0.05927818
   0.52233690  0.47431980  0.55927849
   0.03951009  0.27249735  0.38604420
   0.46048905  0.72750249  0.88604092
   0.96048938  0.77249601  0.11396101
   0.53951279  0.22750277  0.61396358
   0.18416876  0.38313738  0.60025222
   0.31582907  0.61686370  0.10024737
   0.81582867  0.88313483  0.89974852
   0.68417290  0.11686454  0.39975356
   0.89963034  0.15655293  0.16201703
   0.60037083  0.84344528  0.66202132
   0.10037004  0.65655331  0.33798629
   0.39963027  0.34344433  0.83798355

 position of ions in cartesian coordinates  (Angst):
  12.83107499  1.46376843  1.23794632
   6.73492849  8.03221372  3.14494625
   0.21291826  6.21178009  0.66907077
   6.30910263  3.28421291  2.57606930
   1.70547959  2.50687019  2.09939188
   4.81650979  6.98914290  0.19237955
  11.33851972  7.25483573  3.62161916
   8.22751524  2.24114502  1.71462439
   2.22843641  1.26156776  2.56715488
   4.29357061  8.23443310  0.66015863
  10.81557991  6.00955398  3.15384832
   8.75044460  3.48643594  1.24685571
   1.47708890  0.15122457  2.33346513
   5.04491201  9.34477543  0.42646806
  11.56690582  4.89921607  3.38753120
   7.99910280  4.59677784  1.48054908
  12.90497622  8.85152191  1.31903395
   6.66103350  0.64446126  3.22603785
   0.13902378  4.10353677  0.58797128
   6.38298561  5.39246154  2.49497702
   2.01521512  4.53678374  1.97546003
   4.50677748  4.95923450  0.06845208
  11.02877600  9.28474347  3.74554792
   8.53725427  0.21125141  1.83855323
   3.37048911  3.57895190  2.61472445
   3.15149628  5.91705023  0.70771869
   9.67349667  8.32692273  3.10628417
   9.89254336  1.16907280  1.19928893
   3.17784495  1.22154206  3.08849984
   3.34415989  8.27446609  1.18150145
   9.86617044  5.96952568  2.63249684
   9.69985954  3.52647035  0.72550255
   1.76095250  8.64035409  2.64050615
   4.76106885  0.85564721  0.73350243
  11.28307572  3.89233456  3.08049837
   8.28294684  5.60365682  1.17350594
   0.29137105  0.24386573  1.68094157
   6.23064454  9.25213959  3.58792561
  12.75265039  4.99184306  0.22608698
   6.81336251  4.50414085  2.13308818
   0.51536959  2.58763483  1.47237257
   6.00661919  6.90836363  3.37936008
  12.52862352  7.33562211  0.43464730
   7.03740486  2.16036632  2.34165711
   2.40229736  3.63827254  2.28936198
   4.11967443  5.85773770  0.38234347
  10.64166915  8.38624836  3.43164085
   8.92435133  1.10974565  1.52466007
  11.73477809  1.48662658  0.61793295
   7.83123705  8.00935635  2.52494932
   1.30922684  6.23463023  1.28907971
   5.21277719  3.26134733  3.19606926



--------------------------------------------------------------------------------------------------------


 k-point   1 :   0.0000 0.0000 0.0000  plane waves:   33889
 k-point   2 :   0.5000 0.0000 0.0000  plane waves:   33984
 k-point   3 :   0.0000 0.3333 0.0000  plane waves:   33861
 k-point   4 :   0.5000 0.3333 0.0000  plane waves:   33882
 k-point   5 :   0.0000 0.0000 0.1429  plane waves:   33933
 k-point   6 :   0.5000 0.0000 0.1429  plane waves:   33874
 k-point   7 :   0.0000 0.3333 0.1429  plane waves:   33894
 k-point   8 :   0.5000 0.3333 0.1429  plane waves:   33890
 k-point   9 :   0.0000 0.0000 0.2857  plane waves:   33956
 k-point  10 :   0.5000 0.0000 0.2857  plane waves:   33904
 k-point  11 :   0.0000 0.3333 0.2857  plane waves:   33931
 k-point  12 :   0.5000 0.3333 0.2857  plane waves:   33930
 k-point  13 :   0.0000 0.0000 0.4286  plane waves:   33960
 k-point  14 :   0.5000 0.0000 0.4286  plane waves:   33924
 k-point  15 :   0.0000 0.3333 0.4286  plane waves:   33958
 k-point  16 :   0.5000 0.3333 0.4286  plane waves:   33954

 maximum and minimum number of plane-waves per node :       566      498

 maximum number of plane-waves:     33984
 maximum index in each direction: 
   IXMAX=   33   IYMAX=   24   IZMAX=    9
   IXMIN=  -34   IYMIN=  -24   IZMIN=  -10


 parallel 3D FFT for wavefunctions:
    minimum data exchange during FFTs selected (reduces bandwidth)
 parallel 3D FFT for charge:
    minimum data exchange during FFTs selected (reduces bandwidth)


 total amount of memory used by VASP MPI-rank0    48808. kBytes
=======================================================================

   base      :      30000. kBytes
   nonl-proj :       2700. kBytes
   fftplans  :       1374. kBytes
   grid      :       2776. kBytes
   one-center:          3. kBytes
   wavefun   :      11955. kBytes

     INWAV:  cpu time      0.0013: real time      0.0014
 Broyden mixing: mesh for mixing (old mesh)
   NGX = 67   NGY = 49   NGZ = 19
  (NGX  =280   NGY  =196   NGZ  = 80)
  gives a total of  62377 points

 initial charge density was supplied:
 charge density of overlapping atoms calculated
 number of electron     168.0000000 magnetization 
 keeping initial charge density in first step


--------------------------------------------------------------------------------------------------------


 Maximum index for augmentation-charges          428 (set IRDMAX)


--------------------------------------------------------------------------------------------------------


 First call to EWALD:  gamma=   0.228
 Maximum number of real-space cells 2x 2x 5
 Maximum number of reciprocal cells 4x 3x 2

    FEWALD:  cpu time      0.0032: real time      0.0032


--------------------------------------- Ionic step        1  -------------------------------------------




--------------------------------------- Iteration      1(   1)  ---------------------------------------


vdW kernel read from vdw_kernel.bindat
  0.0000  0.2424  0.5071  0.7962  1.1119  1.4567  1.8333  2.2446  2.6937  3.1842
  3.7199  4.3049  4.9438  5.6415  6.4036  7.2358  8.1446  9.1372 10.2212 11.4050
 12.6979 14.1099 15.6519 17.3360 19.1751 21.1837 23.3773 25.7729 28.3892 31.2465
 34.3669 37.7748 41.4965 45.5611 50.0000

    POTLOK:  cpu time      1.4982: real time      1.5199
    SETDIJ:  cpu time      0.0723: real time      0.0727
    TRIAL :  cpu time      2.3480: real time      2.3501
    CORREC:  cpu time      0.0020: real time      0.0023
    --------------------------------------------
      LOOP:  cpu time      3.9300: real time      3.9544

 eigenvalue-minimisations  :  3584
 total energy-change (2. order) : 0.1564182E+04  (-0.1288394E+05)
 number of electron     168.0000000 magnetization 
 augmentation part      168.0000000 magnetization 

 Free energy of the ion-electron system (eV)
  ---------------------------------------------------
  alpha Z        PSCENC =       180.74474154
  Ewald energy   TEWEN  =     -3822.88917450
  -Hartree energ DENC   =     -3122.05496314
  -exchange      EXHF   =         0.00000000
  -V(xc)+E(xc)   XCENC  =       448.34210088
  PAW double counting   =      5750.53097697    -5642.03360528
  entropy T*S    EENTRO =        -0.00008853
  eigenvalues    EBANDS =       165.69566187
  atomic energy  EATOM  =      7605.84627182
  ---------------------------------------------------
  free energy    TOTEN  =      1564.18192162 eV

  energy without entropy =     1564.18201015  energy(sigma->0) =     1564.18196589


--------------------------------------------------------------------------------------------------------




--------------------------------------- Iteration      1(   2)  ---------------------------------------


    TRIAL :  cpu time      2.8521: real time      2.8534
    CORREC:  cpu time      0.0003: real time      0.0003
    --------------------------------------------
      LOOP:  cpu time      2.8687: real time      2.8843

 eigenvalue-minimisations  :  4688
 total energy-change (2. order) :-0.1631510E+04  (-0.1564215E+04)
 number of electron     168.0000000 magnetization 
 augmentation part      168.0000000 magnetization 

 Free energy of the ion-electron system (eV)
  ---------------------------------------------------
  alpha Z        PSCENC =       180.74474154
  Ewald energy   TEWEN  =     -3822.88917450
  -Hartree energ DENC   =     -3122.05496314
  -exchange      EXHF   =         0.00000000
  -V(xc)+E(xc)   XCENC  =       448.34210088
  PAW double counting   =      5750.53097697    -5642.03360528
  entropy T*S    EENTRO =        -0.00000000
  eigenvalues    EBANDS =     -1465.81416801
  atomic energy  EATOM  =      7605.84627182
  ---------------------------------------------------
  free energy    TOTEN  =       -67.32781973 eV

  energy without entropy =      -67.32781973  energy(sigma->0) =      -67.32781973


--------------------------------------------------------------------------------------------------------




--------------------------------------- Iteration      1(   3)  ---------------------------------------


    TRIAL :  cpu time      2.6363: real time      2.6375
    CORREC:  cpu time      0.0003: real time      0.0003
    --------------------------------------------
      LOOP:  cpu time      2.6585: real time      2.6669

 eigenvalue-minimisations  :  4328
 total energy-change (2. order) :-0.2441692E+03  (-0.2410182E+03)
 number of electron     168.0000000 magnetization 
 augmentation part      168.0000000 magnetization 

 Free energy of the ion-electron system (eV)
  ---------------------------------------------------
  alpha Z        PSCENC =       180.74474154
  Ewald energy   TEWEN  =     -3822.88917450
  -Hartree energ DENC   =     -3122.05496314
  -exchange      EXHF   =         0.00000000
  -V(xc)+E(xc)   XCENC  =       448.34210088
  PAW double counting   =      5750.53097697    -5642.03360528
  entropy T*S    EENTRO =        -0.00000000
  eigenvalues    EBANDS =     -1709.98338232
  atomic energy  EATOM  =      7605.84627182
  ---------------------------------------------------
  free energy    TOTEN  =      -311.49703405 eV

  energy without entropy =     -311.49703405  energy(sigma->0) =     -311.49703405


--------------------------------------------------------------------------------------------------------




--------------------------------------- Iteration      1(   4)  ---------------------------------------


    TRIAL :  cpu time      2.7887: real time      2.7902
    CORREC:  cpu time      0.0003: real time      0.0003
    --------------------------------------------
      LOOP:  cpu time      2.8173: real time      2.8189

 eigenvalue-minimisations  :  4680
 total energy-change (2. order) :-0.1018037E+02  (-0.1012974E+02)
 number of electron     168.0000000 magnetization 
 augmentation part      168.0000000 magnetization 

 Free energy of the ion-electron system (eV)
  ---------------------------------------------------
  alpha Z        PSCENC =       180.74474154
  Ewald energy   TEWEN  =     -3822.88917450
  -Hartree energ DENC   =     -3122.05496314
  -exchange      EXHF   =         0.00000000
  -V(xc)+E(xc)   XCENC  =       448.34210088
  PAW double counting   =      5750.53097697    -5642.03360528
  entropy T*S    EENTRO =        -0.00000000
  eigenvalues    EBANDS =     -1720.16375447
  atomic energy  EATOM  =      7605.84627182
  ---------------------------------------------------
  free energy    TOTEN  =      -321.67740619 eV

  energy without entropy =     -321.67740619  energy(sigma->0) =     -321.67740619


--------------------------------------------------------------------------------------------------------




--------------------------------------- Iteration      1(   5)  ---------------------------------------


    TRIAL :  cpu time      2.8181: real time      2.8197
    CORREC:  cpu time      0.0003: real time      0.0003
    CHARGE:  cpu time      0.2065: real time      0.2076
    --------------------------------------------
      LOOP:  cpu time      3.0369: real time      3.0597

 eigenvalue-minimisations  :  4632
 total energy-change (2. order) :-0.2924276E+00  (-0.2921295E+00)
 number of electron     167.9999999 magnetization 
 augmentation part        0.2211302 magnetization 

 Free energy of the ion-electron system (eV)
  ---------------------------------------------------
  alpha Z        PSCENC =       180.74474154
  Ewald energy   TEWEN  =     -3822.88917450
  -Hartree energ DENC   =     -3122.05496314
  -exchange      EXHF   =         0.00000000
  -V(xc)+E(xc)   XCENC  =       448.34210088
  PAW double counting   =      5750.53097697    -5642.03360528
  entropy T*S    EENTRO =        -0.00000000
  eigenvalues    EBANDS =     -1720.45618206
  atomic energy  EATOM  =      7605.84627182
  ---------------------------------------------------
  free energy    TOTEN  =      -321.96983378 eV

  energy without entropy =     -321.96983378  energy(sigma->0) =     -321.96983378


--------------------------------------------------------------------------------------------------------




--------------------------------------- Iteration      1(   6)  ---------------------------------------


    POTLOK:  cpu time      0.8600: real time      0.8604
    SETDIJ:  cpu time      0.0665: real time      0.0665
    TRIAL :  cpu time      1.3581: real time      1.3597
    CORREC:  cpu time      1.6466: real time      1.6477
    CHARGE:  cpu time      0.1486: real time      0.1486
    --------------------------------------------
      LOOP:  cpu time      4.0918: real time      4.1123

 eigenvalue-minimisations  :     0
 total energy-change (2. order) : 0.5947654E+02  (-0.2705722E+02)
 number of electron     167.9999999 magnetization 
 augmentation part       -0.0176947 magnetization 

 Free energy of the ion-electron system (eV)
  ---------------------------------------------------
  alpha Z        PSCENC =       180.74474154
  Ewald energy   TEWEN  =     -3822.88917450
  -Hartree energ DENC   =     -3982.63462663
  -exchange      EXHF   =         0.00000000
  -V(xc)+E(xc)   XCENC  =       502.22619562
  PAW double counting   =     54380.14149834   -54281.11462697
  entropy T*S    EENTRO =        -0.00000000
  eigenvalues    EBANDS =      -844.81357683
  atomic energy  EATOM  =      7605.84627182
  ---------------------------------------------------
  free energy    TOTEN  =      -262.49329760 eV

  energy without entropy =     -262.49329760  energy(sigma->0) =     -262.49329760


--------------------------------------------------------------------------------------------------------




--------------------------------------- Iteration      1(   7)  ---------------------------------------


    POTLOK:  cpu time      0.8598: real time      0.8602
    SETDIJ:  cpu time      0.0666: real time      0.0666
    TRIAL :  cpu time      1.3106: real time      1.3117
    CORREC:  cpu time      1.6514: real time      1.6519
    CHARGE:  cpu time      0.1711: real time      0.1712
    --------------------------------------------
      LOOP:  cpu time      4.0884: real time      4.0907

 eigenvalue-minimisations  :     0
 total energy-change (2. order) :-0.2710918E+02  (-0.2997860E+01)
 number of electron     167.9999999 magnetization 
 augmentation part       -0.1053844 magnetization 

 Free energy of the ion-electron system (eV)
  ---------------------------------------------------
  alpha Z        PSCENC =       180.74474154
  Ewald energy   TEWEN  =     -3822.88917450
  -Hartree energ DENC   =     -3580.25694229
  -exchange      EXHF   =         0.00000000
  -V(xc)+E(xc)   XCENC  =       478.19117012
  PAW double counting   =     73453.72800131   -73350.45107768
  entropy T*S    EENTRO =        -0.00000000
  eigenvalues    EBANDS =     -1254.51547180
  atomic energy  EATOM  =      7605.84627182
  ---------------------------------------------------
  free energy    TOTEN  =      -289.60248148 eV

  energy without entropy =     -289.60248148  energy(sigma->0) =     -289.60248148


--------------------------------------------------------------------------------------------------------




--------------------------------------- Iteration      1(   8)  ---------------------------------------


    POTLOK:  cpu time      0.8761: real time      0.8767
    SETDIJ:  cpu time      0.0665: real time      0.0665
    TRIAL :  cpu time      1.3080: real time      1.3089
    CORREC:  cpu time      1.6328: real time      1.6333
    CHARGE:  cpu time      0.1482: real time      0.1482
    --------------------------------------------
      LOOP:  cpu time      4.0438: real time      4.0637

 eigenvalue-minimisations  :     0
 total energy-change (2. order) :-0.3008810E+01  (-0.9608403E+00)
 number of electron     167.9999999 magnetization 
 augmentation part       -0.1163753 magnetization 

 Free energy of the ion-electron system (eV)
  ---------------------------------------------------
  alpha Z        PSCENC =       180.74474154
  Ewald energy   TEWEN  =     -3822.88917450
  -Hartree energ DENC   =     -3576.28542624
  -exchange      EXHF   =         0.00000000
  -V(xc)+E(xc)   XCENC  =       477.84203593
  PAW double counting   =     76008.60492187   -75904.87039043
  entropy T*S    EENTRO =        -0.00000000
  eigenvalues    EBANDS =     -1261.60427099
  atomic energy  EATOM  =      7605.84627182
  ---------------------------------------------------
  free energy    TOTEN  =      -292.61129101 eV

  energy without entropy =     -292.61129101  energy(sigma->0) =     -292.61129101


--------------------------------------------------------------------------------------------------------




--------------------------------------- Iteration      1(   9)  ---------------------------------------


    POTLOK:  cpu time      0.8582: real time      0.8583
    SETDIJ:  cpu time      0.0665: real time      0.0666
    TRIAL :  cpu time      1.3054: real time      1.3065
    CORREC:  cpu time      1.6364: real time      1.6369
    CHARGE:  cpu time      0.1482: real time      0.1486
    --------------------------------------------
      LOOP:  cpu time      4.0413: real time      4.0465

 eigenvalue-minimisations  :     0
 total energy-change (2. order) :-0.9560528E+00  (-0.3011728E+00)
 number of electron     167.9999999 magnetization 
 augmentation part       -0.1043193 magnetization 

 Free energy of the ion-electron system (eV)
  ---------------------------------------------------
  alpha Z        PSCENC =       180.74474154
  Ewald energy   TEWEN  =     -3822.88917450
  -Hartree energ DENC   =     -3572.25974172
  -exchange      EXHF   =         0.00000000
  -V(xc)+E(xc)   XCENC  =       477.73054784
  PAW double counting   =     76899.28649180   -76795.41244849
  entropy T*S    EENTRO =        -0.00000000
  eigenvalues    EBANDS =     -1266.61403208
  atomic energy  EATOM  =      7605.84627182
  ---------------------------------------------------
  free energy    TOTEN  =      -293.56734378 eV

  energy without entropy =     -293.56734378  energy(sigma->0) =     -293.56734378


--------------------------------------------------------------------------------------------------------




--------------------------------------- Iteration      1(  10)  ---------------------------------------


    POTLOK:  cpu time      0.9334: real time      0.9334
    SETDIJ:  cpu time      0.0661: real time      0.0665
    TRIAL :  cpu time      1.3059: real time      1.3064
    CORREC:  cpu time      1.6556: real time      1.6565
    CHARGE:  cpu time      0.1500: real time      0.1500
    --------------------------------------------
      LOOP:  cpu time      4.1258: real time      4.1430

 eigenvalue-minimisations  :     0
 total energy-change (2. order) :-0.3001398E+00  (-0.8186871E-01)
 number of electron     167.9999999 magnetization 
 augmentation part       -0.1000401 magnetization 

 Free energy of the ion-electron system (eV)
  ---------------------------------------------------
  alpha Z        PSCENC =       180.74474154
  Ewald energy   TEWEN  =     -3822.88917450
  -Hartree energ DENC   =     -3562.19046977
  -exchange      EXHF   =         0.00000000
  -V(xc)+E(xc)   XCENC  =       477.25941566
  PAW double counting   =     75770.96234019   -75667.10245146
  entropy T*S    EENTRO =        -0.00000000
  eigenvalues    EBANDS =     -1276.49815702
  atomic energy  EATOM  =      7605.84627182
  ---------------------------------------------------
  free energy    TOTEN  =      -293.86748354 eV

  energy without entropy =     -293.86748354  energy(sigma->0) =     -293.86748354


--------------------------------------------------------------------------------------------------------




--------------------------------------- Iteration      1(  11)  ---------------------------------------


    POTLOK:  cpu time      0.8595: real time      0.8599
    SETDIJ:  cpu time      0.0665: real time      0.0665
    TRIAL :  cpu time      1.3040: real time      1.3048
    CORREC:  cpu time      1.6360: real time      1.6369
    CHARGE:  cpu time      0.1491: real time      0.1491
    --------------------------------------------
      LOOP:  cpu time      4.0271: real time      4.0462

 eigenvalue-minimisations  :     0
 total energy-change (2. order) :-0.8177285E-01  (-0.1847220E-01)
 number of electron     167.9999999 magnetization 
 augmentation part       -0.1001616 magnetization 

 Free energy of the ion-electron system (eV)
  ---------------------------------------------------
  alpha Z        PSCENC =       180.74474154
  Ewald energy   TEWEN  =     -3822.88917450
  -Hartree energ DENC   =     -3560.08712532
  -exchange      EXHF   =         0.00000000
  -V(xc)+E(xc)   XCENC  =       477.09160977
  PAW double counting   =     74908.84394752   -74805.02244547
  entropy T*S    EENTRO =        -0.00000000
  eigenvalues    EBANDS =     -1278.47708174
  atomic energy  EATOM  =      7605.84627182
  ---------------------------------------------------
  free energy    TOTEN  =      -293.94925639 eV

  energy without entropy =     -293.94925639  energy(sigma->0) =     -293.94925639


--------------------------------------------------------------------------------------------------------




--------------------------------------- Iteration      1(  12)  ---------------------------------------


    POTLOK:  cpu time      0.8583: real time      0.8589
    SETDIJ:  cpu time      0.0668: real time      0.0668
    TRIAL :  cpu time      1.3466: real time      1.3471
    CORREC:  cpu time      1.6400: real time      1.6408
    CHARGE:  cpu time      0.1485: real time      0.1485
    --------------------------------------------
      LOOP:  cpu time      4.0912: real time      4.0934

 eigenvalue-minimisations  :     0
 total energy-change (2. order) :-0.1846108E-01  (-0.4427113E-02)
 number of electron     167.9999999 magnetization 
 augmentation part       -0.1010044 magnetization 

 Free energy of the ion-electron system (eV)
  ---------------------------------------------------
  alpha Z        PSCENC =       180.74474154
  Ewald energy   TEWEN  =     -3822.88917450
  -Hartree energ DENC   =     -3560.21452079
  -exchange      EXHF   =         0.00000000
  -V(xc)+E(xc)   XCENC  =       477.05389950
  PAW double counting   =     74781.71476758   -74677.90425273
  entropy T*S    EENTRO =        -0.00000000
  eigenvalues    EBANDS =     -1278.31944989
  atomic energy  EATOM  =      7605.84627182
  ---------------------------------------------------
  free energy    TOTEN  =      -293.96771747 eV

  energy without entropy =     -293.96771747  energy(sigma->0) =     -293.96771747


--------------------------------------------------------------------------------------------------------




--------------------------------------- Iteration      1(  13)  ---------------------------------------


    POTLOK:  cpu time      0.8585: real time      0.8589
    SETDIJ:  cpu time      0.0669: real time      0.0669
    TRIAL :  cpu time      1.3057: real time      1.3062
    CORREC:  cpu time      1.6356: real time      1.6364
    CHARGE:  cpu time      0.1490: real time      0.1490
    --------------------------------------------
      LOOP:  cpu time      4.0275: real time      4.0478

 eigenvalue-minimisations  :     0
 total energy-change (2. order) :-0.4422698E-02  (-0.1196925E-02)
 number of electron     167.9999999 magnetization 
 augmentation part       -0.1018780 magnetization 

 Free energy of the ion-electron system (eV)
  ---------------------------------------------------
  alpha Z        PSCENC =       180.74474154
  Ewald energy   TEWEN  =     -3822.88917450
  -Hartree energ DENC   =     -3559.77829773
  -exchange      EXHF   =         0.00000000
  -V(xc)+E(xc)   XCENC  =       477.03734561
  PAW double counting   =     74838.49941373   -74734.68815619
  entropy T*S    EENTRO =        -0.00000000
  eigenvalues    EBANDS =     -1278.74428444
  atomic energy  EATOM  =      7605.84627182
  ---------------------------------------------------
  free energy    TOTEN  =      -293.97214016 eV

  energy without entropy =     -293.97214016  energy(sigma->0) =     -293.97214016


--------------------------------------------------------------------------------------------------------




--------------------------------------- Iteration      1(  14)  ---------------------------------------


    POTLOK:  cpu time      0.8580: real time      0.8584
    SETDIJ:  cpu time      0.0665: real time      0.0665
    TRIAL :  cpu time      1.3362: real time      1.3367
    CORREC:  cpu time      1.6336: real time      1.6344
    CHARGE:  cpu time      0.1487: real time      0.1487
    --------------------------------------------
      LOOP:  cpu time      4.0546: real time      4.0758

 eigenvalue-minimisations  :     0
 total energy-change (2. order) :-0.1195137E-02  (-0.3854013E-03)
 number of electron     167.9999999 magnetization 
 augmentation part       -0.1016623 magnetization 

 Free energy of the ion-electron system (eV)
  ---------------------------------------------------
  alpha Z        PSCENC =       180.74474154
  Ewald energy   TEWEN  =     -3822.88917450
  -Hartree energ DENC   =     -3559.71432895
  -exchange      EXHF   =         0.00000000
  -V(xc)+E(xc)   XCENC  =       477.02506938
  PAW double counting   =     74845.83061753   -74742.01493711
  entropy T*S    EENTRO =        -0.00000000
  eigenvalues    EBANDS =     -1278.80159503
  atomic energy  EATOM  =      7605.84627182
  ---------------------------------------------------
  free energy    TOTEN  =      -293.97333530 eV

  energy without entropy =     -293.97333530  energy(sigma->0) =     -293.97333530


--------------------------------------------------------------------------------------------------------




--------------------------------------- Iteration      1(  15)  ---------------------------------------


    POTLOK:  cpu time      0.8647: real time      0.8651
    SETDIJ:  cpu time      0.0665: real time      0.0665
    TRIAL :  cpu time      1.3052: real time      1.3056
    CORREC:  cpu time      1.6352: real time      1.6362
    CHARGE:  cpu time      0.1487: real time      0.1487
    --------------------------------------------
      LOOP:  cpu time      4.0493: real time      4.0513

 eigenvalue-minimisations  :     0
 total energy-change (2. order) :-0.3851403E-03  (-0.1424978E-03)
 number of electron     167.9999999 magnetization 
 augmentation part       -0.1018818 magnetization 

 Free energy of the ion-electron system (eV)
  ---------------------------------------------------
  alpha Z        PSCENC =       180.74474154
  Ewald energy   TEWEN  =     -3822.88917450
  -Hartree energ DENC   =     -3560.10397463
  -exchange      EXHF   =         0.00000000
  -V(xc)+E(xc)   XCENC  =       477.04517430
  PAW double counting   =     74802.98398408   -74699.17249004
  entropy T*S    EENTRO =        -0.00000000
  eigenvalues    EBANDS =     -1278.42825301
  atomic energy  EATOM  =      7605.84627182
  ---------------------------------------------------
  free energy    TOTEN  =      -293.97372044 eV

  energy without entropy =     -293.97372044  energy(sigma->0) =     -293.97372044


--------------------------------------------------------------------------------------------------------




--------------------------------------- Iteration      1(  16)  ---------------------------------------


    POTLOK:  cpu time      0.8593: real time      0.8598
    SETDIJ:  cpu time      0.0665: real time      0.0665
    TRIAL :  cpu time      1.3152: real time      1.3157
    CORREC:  cpu time      1.6890: real time      1.6901
    CHARGE:  cpu time      0.1490: real time      0.1490
    --------------------------------------------
      LOOP:  cpu time      4.0940: real time      4.1102

 eigenvalue-minimisations  :     0
 total energy-change (2. order) :-0.1432445E-03  (-0.5044632E-04)
 number of electron     167.9999999 magnetization 
 augmentation part       -0.1018843 magnetization 

 Free energy of the ion-electron system (eV)
  ---------------------------------------------------
  alpha Z        PSCENC =       180.74474154
  Ewald energy   TEWEN  =     -3822.88917450
  -Hartree energ DENC   =     -3559.92412371
  -exchange      EXHF   =         0.00000000
  -V(xc)+E(xc)   XCENC  =       477.03503057
  PAW double counting   =     74784.02529915   -74680.21128966
  entropy T*S    EENTRO =        -0.00000000
  eigenvalues    EBANDS =     -1278.60061889
  atomic energy  EATOM  =      7605.84627182
  ---------------------------------------------------
  free energy    TOTEN  =      -293.97386369 eV

  energy without entropy =     -293.97386369  energy(sigma->0) =     -293.97386369


--------------------------------------------------------------------------------------------------------




--------------------------------------- Iteration      1(  17)  ---------------------------------------


    POTLOK:  cpu time      0.8582: real time      0.8587
    SETDIJ:  cpu time      0.0665: real time      0.0665
    TRIAL :  cpu time      1.3063: real time      1.3067
    CORREC:  cpu time      1.6344: real time      1.6353
    CHARGE:  cpu time      0.1497: real time      0.1497
    --------------------------------------------
      LOOP:  cpu time      4.0288: real time      4.0464

 eigenvalue-minimisations  :     0
 total energy-change (2. order) :-0.5009037E-04  (-0.1710926E-04)
 number of electron     167.9999999 magnetization 
 augmentation part       -0.1020371 magnetization 

 Free energy of the ion-electron system (eV)
  ---------------------------------------------------
  alpha Z        PSCENC =       180.74474154
  Ewald energy   TEWEN  =     -3822.88917450
  -Hartree energ DENC   =     -3560.07570047
  -exchange      EXHF   =         0.00000000
  -V(xc)+E(xc)   XCENC  =       477.04279216
  PAW double counting   =     74785.09025580   -74681.27689647
  entropy T*S    EENTRO =        -0.00000000
  eigenvalues    EBANDS =     -1278.45620365
  atomic energy  EATOM  =      7605.84627182
  ---------------------------------------------------
  free energy    TOTEN  =      -293.97391378 eV

  energy without entropy =     -293.97391378  energy(sigma->0) =     -293.97391378


--------------------------------------------------------------------------------------------------------




--------------------------------------- Iteration      1(  18)  ---------------------------------------


    POTLOK:  cpu time      0.9055: real time      0.9059
    SETDIJ:  cpu time      0.0665: real time      0.0665
    TRIAL :  cpu time      1.3978: real time      1.3988
    CORREC:  cpu time      1.7290: real time      1.7295
    CHARGE:  cpu time      0.1490: real time      0.1490
    --------------------------------------------
      LOOP:  cpu time      4.2780: real time      4.2801

 eigenvalue-minimisations  :     0
 total energy-change (2. order) :-0.1673208E-04  (-0.5463105E-05)
 number of electron     167.9999999 magnetization 
 augmentation part       -0.1020514 magnetization 

 Free energy of the ion-electron system (eV)
  ---------------------------------------------------
  alpha Z        PSCENC =       180.74474154
  Ewald energy   TEWEN  =     -3822.88917450
  -Hartree energ DENC   =     -3560.02439915
  -exchange      EXHF   =         0.00000000
  -V(xc)+E(xc)   XCENC  =       477.04076851
  PAW double counting   =     74801.11594283   -74697.30141536
  entropy T*S    EENTRO =        -0.00000000
  eigenvalues    EBANDS =     -1278.50666620
  atomic energy  EATOM  =      7605.84627182
  ---------------------------------------------------
  free energy    TOTEN  =      -293.97393051 eV

  energy without entropy =     -293.97393051  energy(sigma->0) =     -293.97393051


--------------------------------------------------------------------------------------------------------




--------------------------------------- Iteration      1(  19)  ---------------------------------------


    POTLOK:  cpu time      0.8588: real time      0.8593
    SETDIJ:  cpu time      0.0669: real time      0.0669
    TRIAL :  cpu time      1.3077: real time      1.3086
    CORREC:  cpu time      1.6360: real time      1.6365
    CHARGE:  cpu time      0.1486: real time      0.1486
    --------------------------------------------
      LOOP:  cpu time      4.0302: real time      4.0498

 eigenvalue-minimisations  :     0
 total energy-change (2. order) :-0.5252441E-05  (-0.1449968E-05)
 number of electron     167.9999999 magnetization 
 augmentation part       -0.1020738 magnetization 

 Free energy of the ion-electron system (eV)
  ---------------------------------------------------
  alpha Z        PSCENC =       180.74474154
  Ewald energy   TEWEN  =     -3822.88917450
  -Hartree energ DENC   =     -3560.04742060
  -exchange      EXHF   =         0.00000000
  -V(xc)+E(xc)   XCENC  =       477.04207193
  PAW double counting   =     74808.48135837   -74704.66692634
  entropy T*S    EENTRO =        -0.00000000
  eigenvalues    EBANDS =     -1278.48485798
  atomic energy  EATOM  =      7605.84627182
  ---------------------------------------------------
  free energy    TOTEN  =      -293.97393576 eV

  energy without entropy =     -293.97393576  energy(sigma->0) =     -293.97393576


--------------------------------------------------------------------------------------------------------




--------------------------------------- Iteration      1(  20)  ---------------------------------------


    POTLOK:  cpu time      0.8593: real time      0.8597
    SETDIJ:  cpu time      0.0665: real time      0.0665
    TRIAL :  cpu time      1.3070: real time      1.3078
    CORREC:  cpu time      1.6638: real time      1.6643
    CHARGE:  cpu time      0.1486: real time      0.1490
    --------------------------------------------
      LOOP:  cpu time      4.0593: real time      4.0770

 eigenvalue-minimisations  :     0
 total energy-change (2. order) :-0.1438137E-05  (-0.4601165E-06)
 number of electron     167.9999999 magnetization 
 augmentation part       -0.1020559 magnetization 

 Free energy of the ion-electron system (eV)
  ---------------------------------------------------
  alpha Z        PSCENC =       180.74474154
  Ewald energy   TEWEN  =     -3822.88917450
  -Hartree energ DENC   =     -3560.02402961
[...]
     71      -0.8140      2.00000
     72      -0.7896      2.00000
     73      -0.5278      2.00000
     74      -0.5088      2.00000
     75      -0.3822      2.00000
     76      -0.3705      2.00000
     77      -0.3120      2.00000
     78      -0.3006      2.00000
     79      -0.1984      2.00000
     80      -0.1922      2.00000
     81       0.2595      2.00000
     82       0.2683      2.00000
     83       0.3022      2.00000
     84       0.3266      2.00000
     85       4.1023      0.00000
     86       4.1122      0.00000
     87       4.1288      0.00000
     88       4.1447      0.00000
     89       4.9863      0.00000
     90       4.9884      0.00000
     91       5.2026      0.00000
     92       5.2349      0.00000
     93       7.1808      0.00000
     94       7.2232      0.00000
     95       7.5886      0.00000
     96       7.6558      0.00000
     97       7.8862      0.00000
     98       7.9410      0.00000
     99       8.2698      0.00000
    100       8.4017      0.00000
    101       8.7070      0.00000
    102       8.8583      0.00000
    103       8.9823      0.00000
    104       9.1233      0.00000
    105       9.2686      0.00000
    106       9.3712      0.00000
    107       9.4311      0.00000
    108       9.5760      0.00000
    109       9.6960      0.00000
    110       9.7490      0.00000
    111      10.0179      0.00000
    112      10.2860      0.00000

 k-point    16 :       0.5000    0.3333    0.4286
  band No.  band energies     occupation 
      1     -20.1252      2.00000
      2     -20.1233      2.00000
      3     -20.0895      2.00000
      4     -20.0876      2.00000
      5     -18.2450      2.00000
      6     -18.2438      2.00000
      7     -18.2158      2.00000
      8     -18.2145      2.00000
      9     -17.4617      2.00000
     10     -17.4606      2.00000
     11     -17.4338      2.00000
     12     -17.4328      2.00000
     13     -15.7341      2.00000
     14     -15.7332      2.00000
     15     -15.6894      2.00000
     16     -15.6884      2.00000
     17     -13.3472      2.00000
     18     -13.3458      2.00000
     19     -13.3096      2.00000
     20     -13.3083      2.00000
     21     -10.4933      2.00000
     22     -10.4924      2.00000
     23     -10.4458      2.00000
     24     -10.4448      2.00000
     25     -10.0922      2.00000
     26     -10.0915      2.00000
     27     -10.0684      2.00000
     28     -10.0676      2.00000
     29      -8.0690      2.00000
     30      -8.0680      2.00000
     31      -7.8882      2.00000
     32      -7.8873      2.00000
     33      -7.7485      2.00000
     34      -7.7474      2.00000
     35      -7.5361      2.00000
     36      -7.5349      2.00000
     37      -6.9967      2.00000
     38      -6.9960      2.00000
     39      -6.9108      2.00000
     40      -6.9101      2.00000
     41      -6.1578      2.00000
     42      -6.1572      2.00000
     43      -6.0275      2.00000
     44      -6.0269      2.00000
     45      -5.6800      2.00000
     46      -5.6787      2.00000
     47      -5.5553      2.00000
     48      -5.5541      2.00000
     49      -5.0566      2.00000
     50      -5.0560      2.00000
     51      -4.9225      2.00000
     52      -4.9217      2.00000
     53      -4.4669      2.00000
     54      -4.4662      2.00000
     55      -4.3709      2.00000
     56      -4.3701      2.00000
     57      -4.1077      2.00000
     58      -4.1072      2.00000
     59      -4.0221      2.00000
     60      -4.0216      2.00000
     61      -3.5670      2.00000
     62      -3.5661      2.00000
     63      -3.4151      2.00000
     64      -3.4142      2.00000
     65      -2.6050      2.00000
     66      -2.6035      2.00000
     67      -2.5340      2.00000
     68      -2.5325      2.00000
     69      -1.1015      2.00000
     70      -1.1003      2.00000
     71      -0.8054      2.00000
     72      -0.8039      2.00000
     73      -0.4941      2.00000
     74      -0.4926      2.00000
     75      -0.3968      2.00000
     76      -0.3955      2.00000
     77      -0.2862      2.00000
     78      -0.2851      2.00000
     79      -0.2291      2.00000
     80      -0.2281      2.00000
     81       0.2701      2.00000
     82       0.2713      2.00000
     83       0.3153      2.00000
     84       0.3165      2.00000
     85       4.1096      0.00000
     86       4.1107      0.00000
     87       4.1312      0.00000
     88       4.1321      0.00000
     89       5.0805      0.00000
     90       5.0814      0.00000
     91       5.1167      0.00000
     92       5.1176      0.00000
     93       7.3208      0.00000
     94       7.3214      0.00000
     95       7.4514      0.00000
     96       7.4519      0.00000
     97       8.0310      0.00000
     98       8.0315      0.00000
     99       8.2482      0.00000
    100       8.2488      0.00000
    101       8.7696      0.00000
    102       8.7713      0.00000
    103       9.0762      0.00000
    104       9.0902      0.00000
    105       9.3675      0.00000
    106       9.4536      0.00000
    107       9.5748      0.00000
    108       9.6006      0.00000
    109       9.6575      0.00000
    110       9.8485      0.00000
    111      10.0044      0.00000
    112      10.2661      0.00000


--------------------------------------------------------------------------------------------------------


 soft charge-density along one line, spin component           1
         0         1         2         3         4         5         6         7         8         9
 total charge-density along one line

 pseudopotential strength for first ion, spin component:           1
 12.593  21.192  -0.004   0.001   0.000  -0.007   0.002   0.001
 21.192  35.661  -0.007   0.002   0.001  -0.012   0.003   0.002
 -0.004  -0.007  -3.139   0.000   0.002  -5.622   0.000   0.003
  0.001   0.002   0.000  -3.144   0.005   0.000  -5.632   0.008
  0.000   0.001   0.002   0.005  -3.138   0.003   0.008  -5.621
 -0.007  -0.012  -5.622   0.000   0.003 -10.050   0.000   0.005
  0.002   0.003   0.000  -5.632   0.008   0.000 -10.067   0.014
  0.001   0.002   0.003   0.008  -5.621   0.005   0.014 -10.047
 total augmentation occupancy for first ion, spin component:           1
  7.950  -2.935   0.073  -0.521  -0.790  -0.031   0.249   0.386
 -2.935   1.184  -0.014   0.259   0.408   0.012  -0.125  -0.199
  0.073  -0.014   6.840  -0.358   0.385  -2.367   0.157  -0.147
 -0.521   0.259  -0.358   4.164   2.403   0.157  -1.281  -1.013
 -0.790   0.408   0.385   2.403   7.208  -0.147  -1.013  -2.553
 -0.031   0.012  -2.367   0.157  -0.147   0.840  -0.063   0.057
  0.249  -0.125   0.157  -1.281  -1.013  -0.063   0.420   0.419
  0.386  -0.199  -0.147  -1.013  -2.553   0.057   0.419   0.945


------------------------ aborting loop because EDIFF is reached ----------------------------------------


    FORLOC:  cpu time      0.0058: real time      0.0058
    FORNL :  cpu time      0.9863: real time      0.9872
    FORCOR:  cpu time      0.9289: real time      0.9294
    OFIELD:  cpu time      0.0021: real time      0.0026

 VOLUME and BASIS-vectors are now :
 -----------------------------------------------------------------------------
  energy-cutoff  :     1000.00
  volume of cell :      472.42
      direct lattice vectors                 reciprocal lattice vectors
    13.044000000  0.000000000  0.000000000     0.076663600  0.000000000  0.000000000
     0.000000000  9.496000000  0.000000000     0.000000000  0.105307498  0.000000000
     0.000000000  0.000000000  3.814000000     0.000000000  0.000000000  0.262191924

  length of vectors
    13.044000000  9.496000000  3.814000000     0.076663600  0.105307498  0.262191924


 FORCES acting on ions:
    Electron-Ion                     Ewald-Force                    Non-Local-Force
 -----------------------------------------------------------------------------------------------
   0.955E+01 -.614E+01 -.153E+02   -.996E+01 0.865E+01 0.146E+02   0.445E+00 -.257E+01 0.764E+00
   -.955E+01 0.614E+01 -.153E+02   0.996E+01 -.865E+01 0.146E+02   -.445E+00 0.257E+01 0.764E+00
   -.954E+01 -.614E+01 0.153E+02   0.997E+01 0.865E+01 -.146E+02   -.445E+00 -.257E+01 -.764E+00
   0.954E+01 0.614E+01 0.153E+02   -.997E+01 -.865E+01 -.146E+02   0.445E+00 0.257E+01 -.764E+00
   -.712E+02 0.493E+01 -.165E+02   0.720E+02 -.105E+02 0.173E+02   -.855E+00 0.557E+01 -.802E+00
   0.712E+02 -.494E+01 -.165E+02   -.720E+02 0.104E+02 0.173E+02   0.855E+00 -.557E+01 -.802E+00
   0.712E+02 0.495E+01 0.165E+02   -.720E+02 -.104E+02 -.173E+02   0.855E+00 0.557E+01 0.802E+00
   -.712E+02 -.494E+01 0.165E+02   0.720E+02 0.104E+02 -.173E+02   -.855E+00 -.557E+01 0.802E+00
   -.139E+03 0.279E+02 -.480E+02   0.141E+03 -.290E+02 0.491E+02   -.142E+01 0.114E+01 -.924E+00
   0.139E+03 -.279E+02 -.480E+02   -.141E+03 0.290E+02 0.491E+02   0.142E+01 -.114E+01 -.924E+00
   0.139E+03 0.279E+02 0.480E+02   -.141E+03 -.290E+02 -.491E+02   0.142E+01 0.114E+01 0.924E+00
   -.139E+03 -.279E+02 0.480E+02   0.141E+03 0.290E+02 -.491E+02   -.142E+01 -.114E+01 0.924E+00
   -.998E+02 0.116E+03 -.453E+02   0.107E+03 -.116E+03 0.488E+02   -.721E+01 -.281E+00 -.345E+01
   0.998E+02 -.116E+03 -.453E+02   -.107E+03 0.116E+03 0.488E+02   0.721E+01 0.281E+00 -.345E+01
   0.998E+02 0.116E+03 0.453E+02   -.107E+03 -.116E+03 -.488E+02   0.721E+01 -.281E+00 0.345E+01
   -.998E+02 -.116E+03 0.453E+02   0.107E+03 0.116E+03 -.488E+02   -.721E+01 0.281E+00 0.345E+01
   0.178E+02 0.429E+02 0.111E+02   -.204E+02 -.484E+02 -.133E+02   0.268E+01 0.566E+01 0.231E+01
   -.178E+02 -.429E+02 0.111E+02   0.204E+02 0.484E+02 -.133E+02   -.268E+01 -.566E+01 0.231E+01
   -.178E+02 0.429E+02 -.111E+02   0.204E+02 -.484E+02 0.133E+02   -.268E+01 0.566E+01 -.231E+01
   0.178E+02 -.429E+02 -.111E+02   -.204E+02 0.484E+02 0.133E+02   0.268E+01 -.566E+01 -.231E+01
   0.468E+01 -.490E+02 0.103E+02   -.735E+01 0.553E+02 -.124E+02   0.277E+01 -.647E+01 0.217E+01
   -.468E+01 0.490E+02 0.103E+02   0.735E+01 -.553E+02 -.124E+02   -.277E+01 0.647E+01 0.217E+01
   -.468E+01 -.490E+02 -.103E+02   0.735E+01 0.553E+02 0.124E+02   -.277E+01 -.647E+01 -.217E+01
   0.468E+01 0.490E+02 -.103E+02   -.735E+01 -.553E+02 0.124E+02   0.277E+01 0.647E+01 -.217E+01
   -.503E+02 -.391E+00 -.160E+02   0.572E+02 0.856E-02 0.183E+02   -.710E+01 0.406E+00 -.236E+01
   0.503E+02 0.391E+00 -.160E+02   -.572E+02 -.893E-02 0.183E+02   0.710E+01 -.406E+00 -.236E+01
   0.503E+02 -.388E+00 0.160E+02   -.572E+02 0.813E-02 -.183E+02   0.710E+01 0.406E+00 0.236E+01
   -.503E+02 0.388E+00 0.160E+02   0.572E+02 -.847E-02 -.183E+02   -.710E+01 -.406E+00 0.236E+01
   -.463E+02 0.578E+01 -.228E+02   0.514E+02 -.600E+01 0.256E+02   -.528E+01 0.225E+00 -.289E+01
   0.463E+02 -.578E+01 -.228E+02   -.514E+02 0.600E+01 0.256E+02   0.528E+01 -.225E+00 -.289E+01
   0.463E+02 0.578E+01 0.228E+02   -.514E+02 -.600E+01 -.256E+02   0.528E+01 0.225E+00 0.289E+01
   -.463E+02 -.578E+01 0.228E+02   0.514E+02 0.600E+01 -.256E+02   -.528E+01 -.225E+00 0.289E+01
   -.258E+02 0.470E+02 -.167E+02   0.274E+02 -.526E+02 0.185E+02   -.157E+01 0.568E+01 -.176E+01
   0.258E+02 -.470E+02 -.167E+02   -.274E+02 0.526E+02 0.185E+02   0.157E+01 -.568E+01 -.176E+01
   0.258E+02 0.470E+02 0.167E+02   -.274E+02 -.526E+02 -.185E+02   0.157E+01 0.568E+01 0.176E+01
   -.258E+02 -.470E+02 0.167E+02   0.274E+02 0.526E+02 -.185E+02   -.157E+01 -.568E+01 0.176E+01
   0.230E+02 0.116E+03 -.761E+01   -.303E+02 -.121E+03 0.804E+01   0.722E+01 0.540E+01 -.518E+00
   -.230E+02 -.116E+03 -.759E+01   0.303E+02 0.121E+03 0.804E+01   -.722E+01 -.540E+01 -.518E+00
   -.230E+02 0.116E+03 0.756E+01   0.303E+02 -.121E+03 -.804E+01   -.722E+01 0.540E+01 0.518E+00
   0.230E+02 -.116E+03 0.757E+01   -.303E+02 0.121E+03 -.804E+01   0.722E+01 -.540E+01 0.518E+00
   0.466E+02 -.128E+03 0.293E+02   -.585E+02 0.155E+03 -.395E+02   0.120E+02 -.279E+02 0.103E+02
   -.465E+02 0.128E+03 0.293E+02   0.585E+02 -.155E+03 -.395E+02   -.120E+02 0.279E+02 0.103E+02
   -.465E+02 -.128E+03 -.293E+02   0.585E+02 0.155E+03 0.395E+02   -.120E+02 -.279E+02 -.103E+02
   0.465E+02 0.128E+03 -.294E+02   -.585E+02 -.155E+03 0.395E+02   0.120E+02 0.279E+02 -.103E+02
   -.974E+02 -.901E+02 -.236E+02   0.987E+02 0.952E+02 0.269E+02   -.994E+00 -.487E+01 -.340E+01
   0.975E+02 0.901E+02 -.235E+02   -.987E+02 -.952E+02 0.269E+02   0.994E+00 0.487E+01 -.340E+01
   0.975E+02 -.900E+02 0.235E+02   -.987E+02 0.952E+02 -.269E+02   0.994E+00 -.487E+01 0.340E+01
   -.975E+02 0.900E+02 0.235E+02   0.987E+02 -.952E+02 -.269E+02   -.994E+00 0.487E+01 0.340E+01
   0.225E+03 -.451E+02 0.991E+02   -.265E+03 0.493E+02 -.123E+03   0.402E+02 -.415E+01 0.242E+02
   -.225E+03 0.451E+02 0.991E+02   0.265E+03 -.493E+02 -.123E+03   -.402E+02 0.415E+01 0.242E+02
   -.225E+03 -.451E+02 -.992E+02   0.265E+03 0.493E+02 0.123E+03   -.402E+02 -.415E+01 -.242E+02
   0.225E+03 0.452E+02 -.991E+02   -.265E+03 -.493E+02 0.123E+03   0.402E+02 0.415E+01 -.242E+02
 -----------------------------------------------------------------------------------------------
   0.156E+00 0.189E+00 -.420E+00   0.568E-13 -.156E-12 0.711E-13   0.000E+00 -.178E-14 0.000E+00


 POSITION                                       TOTAL-FORCE (eV/Angst)
 -----------------------------------------------------------------------------------
     12.83107      1.46377      1.23795        -0.014890      0.014415      0.008075
      6.73493      8.03221      3.14495         0.014890     -0.014415      0.008075
      0.21292      6.21178      0.66907         0.014890      0.014415     -0.008075
      6.30910      3.28421      2.57607        -0.014890     -0.014415     -0.008075
      1.70548      2.50687      2.09939         0.017701     -0.081952      0.005442
      4.81651      6.98914      0.19238        -0.017701      0.081952      0.005442
     11.33852      7.25484      3.62162        -0.017701     -0.081952     -0.005442
      8.22752      2.24115      1.71462         0.017701      0.081952     -0.005442
      2.22844      1.26157      2.56715         0.273649     -0.036595      0.135001
      4.29357      8.23443      0.66016        -0.273649      0.036595      0.135001
     10.81558      6.00955      3.15385        -0.273649     -0.036595     -0.135001
      8.75044      3.48644      1.24686         0.273649      0.036595     -0.135001
      1.47709      0.15122      2.33347         0.157443     -0.273114      0.118142
      5.04491      9.34478      0.42647        -0.157443      0.273114      0.118142
     11.56691      4.89922      3.38753        -0.157443     -0.273114     -0.118142
      7.99910      4.59678      1.48055         0.157443      0.273114     -0.118142
     12.90498      8.85152      1.31903         0.083347      0.160612      0.081529
      6.66103      0.64446      3.22604        -0.083347     -0.160612      0.081529
      0.13902      4.10354      0.58797        -0.083347      0.160612     -0.081529
      6.38299      5.39246      2.49498         0.083347     -0.160612     -0.081529
      2.01522      4.53678      1.97546         0.099179     -0.159845      0.067273
      4.50678      4.95923      0.06845        -0.099179      0.159845      0.067273
     11.02878      9.28474      3.74555        -0.099179     -0.159845     -0.067273
      8.53725      0.21125      1.83855         0.099179      0.159845     -0.067273
      3.37049      3.57895      2.61472        -0.178956      0.025078     -0.066676
      3.15150      5.91705      0.70772         0.178956     -0.025078     -0.066676
      9.67350      8.32692      3.10628         0.178956      0.025078      0.066676
      9.89254      1.16907      1.19929        -0.178956     -0.025078      0.066676
      3.17784      1.22154      3.08850        -0.103928      0.004538     -0.054917
      3.34416      8.27447      1.18150         0.103928     -0.004538     -0.054917
      9.86617      5.96953      2.63250         0.103928      0.004538      0.054917
      9.69986      3.52647      0.72550        -0.103928     -0.004538      0.054917
      1.76095      8.64035      2.64051        -0.024096      0.093214     -0.020998
      4.76107      0.85565      0.73350         0.024096     -0.093214     -0.020998
     11.28308      3.89233      3.08050         0.024096      0.093214      0.020998
      8.28295      5.60366      1.17351        -0.024096     -0.093214      0.020998
      0.29137      0.24387      1.68094        -0.170274     -0.339185     -0.058177
      6.23064      9.25214      3.58793         0.170274      0.339185     -0.058177
     12.75265      4.99184      0.22609         0.170274     -0.339185      0.058177
      6.81336      4.50414      2.13309        -0.170274      0.339185      0.058177
      0.51537      2.58763      1.47237        -0.070500      0.196588     -0.030013
      6.00662      6.90836      3.37936         0.070500     -0.196588     -0.030013
     12.52862      7.33562      0.43465         0.070500      0.196588      0.030013
      7.03740      2.16037      2.34166        -0.070500     -0.196588      0.030013
      2.40230      3.63827      2.28936         0.213340      0.332233      0.047158
      4.11967      5.85774      0.38234        -0.213340     -0.332233      0.047158
     10.64167      8.38625      3.43164        -0.213340      0.332233     -0.047158
      8.92435      1.10975      1.52466         0.213340     -0.332233     -0.047158
     11.73478      1.48663      0.61793        -0.192580      0.069401     -0.140259
      7.83124      8.00936      2.52495         0.192580     -0.069401     -0.140259
      1.30923      6.23463      1.28908         0.192580      0.069401      0.140259
      5.21278      3.26135      3.19607        -0.192580     -0.069401      0.140259
 -----------------------------------------------------------------------------------
    total drift:                                0.155580      0.189346     -0.419890


--------------------------------------------------------------------------------------------------------



  FREE ENERGIE OF THE ION-ELECTRON SYSTEM (eV)
  ---------------------------------------------------
  free  energy   TOTEN  =      -293.97393788 eV

  energy  without entropy=     -293.97393788  energy(sigma->0) =     -293.97393788



--------------------------------------------------------------------------------------------------------


    POTLOK:  cpu time      0.9421: real time      0.9428


--------------------------------------------------------------------------------------------------------


 stress matrix after NEB project (eV)
      0.00000      0.00000      0.00000
      0.00000      0.00000      0.00000
      0.00000      0.00000      0.00000
  FORCES: max atom, RMS     0.397639    0.242887
  FORCE total and by dimension    1.751485    0.339185
  Stress total and by dimension    0.000000    0.000000
     LOOP+:  cpu time     98.8478: real time     99.2467
    4ORBIT:  cpu time      0.0000: real time      0.0000

 total amount of memory used by VASP MPI-rank0    48808. kBytes
=======================================================================

   base      :      30000. kBytes
   nonl-proj :       2700. kBytes
   fftplans  :       1374. kBytes
   grid      :       2776. kBytes
   one-center:          3. kBytes
   wavefun   :      11955. kBytes

  
  
 General timing and accounting informations for this job:
 ========================================================
  
                  Total CPU time used (sec):      127.536
                            User time (sec):      124.545
                          System time (sec):        2.991
                         Elapsed time (sec):      131.789
  
                   Maximum memory used (kb):      317012.
                   Average memory used (kb):          N/A
  
                          Minor page faults:       136089
                          Major page faults:          239
                 Voluntary context switches:         5875
