   32   32    1    1
  0.9475221E+01  0.1325615E-08  0.3923059E-09  0.5830382E-09  0.5000000E-15
   1.0000000000000000E-004
  CAR 
 unknown system                          
     96     36    128

  0.1262379E-14  0.1262379E-14  0.1262379E-14  0.1428571E-01
      1        -23.046816   1.000000
      2        -23.041488   1.000000
      3        -22.802263   1.000000
      4        -22.797119   1.000000
      5        -20.842248   1.000000
      6        -20.832453   1.000000
      7        -20.552526   1.000000
      8        -20.544171   1.000000
      9        -14.098702   1.000000
     10        -14.058059   1.000000
     11        -13.992731   1.000000
     12        -13.963628   1.000000
     13        -10.916881   1.000000
     14        -10.781856   1.000000
     15        -10.305396   1.000000
     16        -10.201371   1.000000
     17         -8.271445   1.000000
     18         -8.073164   1.000000
     19         -7.351441   1.000000
     20         -7.324335   1.000000
     21         -7.302059   1.000000
     22         -7.048557   1.000000
     23         -6.960159   1.000000
     24         -6.819243   1.000000
     25         -6.559385   1.000000
     26         -6.553881   1.000000
     27         -6.528667   1.000000
     28         -6.425189   1.000000
     29         -5.666135   1.000000
     30         -5.494583   1.000000
     31         -5.420762   1.000000
     32         -5.274898   1.000000
     33         -4.999184   1.000000
     34         -4.842299   1.000000
     35         -4.837331   1.000000
     36         -4.805103   1.000000
     37         -4.759116   1.000000
     38         -4.543113   1.000000
     39         -4.501420   1.000000
     40         -4.292770   1.000000
     41         -3.560161   1.000000
     42         -3.524991   1.000000
     43         -3.195745   1.000000
     44         -3.165943   1.000000
     45         -2.488904   1.000000
     46         -2.255965   1.000000
     47         -2.120590   1.000000
     48         -2.042831   1.000000
     49          3.001225   0.000000
     50          3.025846   0.000000
     51          3.417161   0.000000
     52          3.501827   0.000000
     53          3.682612   0.000000
     54          4.693096   0.000000
     55          4.696506   0.000000
     56          5.928088   0.000000
     57          6.236308   0.000000
     58          6.421282   0.000000
     59          6.629024   0.000000
     60          6.871361   0.000000
     61          6.927610   0.000000
     62          6.973217   0.000000
     63          7.474268   0.000000
     64          7.976118   0.000000
     65          7.979097   0.000000
     66          8.693028   0.000000
     67          8.983918   0.000000
     68          9.188245   0.000000
     69          9.225230   0.000000
     70          9.235561   0.000000
     71          9.497043   0.000000
     72         10.116650   0.000000
     73         10.126334   0.000000
     74         10.403204   0.000000
     75         10.665036   0.000000
     76         10.916610   0.000000
     77         10.924724   0.000000
     78         11.030678   0.000000
     79         11.399997   0.000000
     80         11.425042   0.000000
     81         11.435613   0.000000
     82         11.724537   0.000000
     83         11.879725   0.000000
     84         11.964682   0.000000
     85         12.068798   0.000000
     86         12.492628   0.000000
     87         12.820175   0.000000
     88         12.845991   0.000000
     89         13.293019   0.000000
     90         13.380342   0.000000
     91         13.428301   0.000000
     92         13.492068   0.000000
     93         13.678411   0.000000
     94         13.910427   0.000000
     95         13.965930   0.000000
     96         14.061630   0.000000
     97         14.489822   0.000000
     98         14.686692   0.000000
     99         14.909758   0.000000
    100         14.982735   0.000000
    101         15.479839   0.000000
    102         15.555807   0.000000
    103         15.584441   0.000000
    104         15.729990   0.000000
    105         15.872204   0.000000
    106         16.371743   0.000000
    107         16.426324   0.000000
    108         16.688528   0.000000
    109         16.706240   0.000000
    110         16.743213   0.000000
    111         16.796774   0.000000
    112         17.070744   0.000000
    113         17.164047   0.000000
    114         17.407583   0.000000
    115         17.537965   0.000000
    116         17.983454   0.000000
    117         18.121679   0.000000
    118         18.431120   0.000000
    119         18.599154   0.000000
    120         18.883710   0.000000
    121         18.942914   0.000000
    122         19.637306   0.000000
    123         19.657678   0.000000
    124         19.765904   0.000000
    125         19.799603   0.000000
    126         20.083232   0.000000
    127         20.340876   0.000000
    128         20.768183   0.000000

  0.5000000E+00  0.1262379E-14  0.1262379E-14  0.1428571E-01
      1        -23.045005   1.000000
      2        -23.043355   1.000000
      3        -22.799806   1.000000
      4        -22.799523   1.000000
      5        -20.842147   1.000000
      6        -20.832564   1.000000
      7        -20.552430   1.000000
      8        -20.544255   1.000000
      9        -14.082661   1.000000
     10        -14.080156   1.000000
     11        -13.976166   1.000000
     12        -13.974152   1.000000
     13        -10.858412   1.000000
     14        -10.853886   1.000000
     15        -10.247628   1.000000
     16        -10.244897   1.000000
     17         -8.186494   1.000000
     18         -8.178765   1.000000
     19         -7.337199   1.000000
     20         -7.336749   1.000000
     21         -7.190908   1.000000
     22         -7.188697   1.000000
     23         -6.867683   1.000000
     24         -6.865652   1.000000
     25         -6.548370   1.000000
     26         -6.547127   1.000000
     27         -6.487355   1.000000
     28         -6.486502   1.000000
     29         -5.535505   1.000000
     30         -5.532985   1.000000
     31         -5.431856   1.000000
     32         -5.429484   1.000000
     33         -4.956707   1.000000
     34         -4.953443   1.000000
     35         -4.780145   1.000000
     36         -4.779718   1.000000
     37         -4.552529   1.000000
     38         -4.551079   1.000000
     39         -4.470426   1.000000
     40         -4.467232   1.000000
     41         -3.546765   1.000000
     42         -3.541015   1.000000
     43         -3.181519   1.000000
     44         -3.177133   1.000000
     45         -2.384682   1.000000
     46         -2.382186   1.000000
     47         -2.068432   1.000000
     48         -2.066338   1.000000
     49          3.012170   0.000000
     50          3.013331   0.000000
     51          3.448810   0.000000
     52          3.450242   0.000000
     53          3.989718   0.000000
     54          3.992327   0.000000
     55          5.508823   0.000000
     56          5.511604   0.000000
     57          6.255724   0.000000
     58          6.257471   0.000000
     59          6.713462   0.000000
     60          6.715401   0.000000
     61          7.051599   0.000000
     62          7.053516   0.000000
     63          7.872031   0.000000
     64          7.874188   0.000000
     65          8.067410   0.000000
     66          8.071003   0.000000
     67          9.229517   0.000000
     68          9.235251   0.000000
     69          9.269967   0.000000
     70          9.275262   0.000000
     71          9.589690   0.000000
     72          9.590260   0.000000
     73         10.422948   0.000000
     74         10.426173   0.000000
     75         10.785517   0.000000
     76         10.788385   0.000000
     77         11.154264   0.000000
     78         11.157179   0.000000
     79         11.260245   0.000000
     80         11.267421   0.000000
     81         11.550264   0.000000
     82         11.556453   0.000000
     83         11.828160   0.000000
     84         11.830147   0.000000
     85         12.387195   0.000000
     86         12.398011   0.000000
     87         12.866860   0.000000
     88         12.871737   0.000000
     89         13.190682   0.000000
     90         13.191152   0.000000
     91         13.395510   0.000000
     92         13.398861   0.000000
     93         13.843099   0.000000
     94         13.845943   0.000000
     95         14.131778   0.000000
     96         14.137005   0.000000
     97         14.604249   0.000000
     98         14.611329   0.000000
     99         15.212028   0.000000
    100         15.216472   0.000000
    101         15.411851   0.000000
    102         15.415435   0.000000
    103         15.629666   0.000000
    104         15.635251   0.000000
    105         15.971785   0.000000
    106         15.975017   0.000000
    107         16.428973   0.000000
    108         16.431932   0.000000
    109         16.572609   0.000000
    110         16.578247   0.000000
    111         16.732076   0.000000
    112         16.736742   0.000000
    113         17.241115   0.000000
    114         17.245245   0.000000
    115         18.139702   0.000000
    116         18.142848   0.000000
    117         18.489921   0.000000
    118         18.493081   0.000000
    119         18.734675   0.000000
    120         18.736955   0.000000
    121         19.503564   0.000000
    122         19.507043   0.000000
    123         19.764843   0.000000
    124         19.770604   0.000000
    125         20.082755   0.000000
    126         20.087608   0.000000
    127         20.294523   0.000000
    128         20.298437   0.000000

  0.1262379E-14  0.1428571E+00  0.1262379E-14  0.2857143E-01
      1        -23.026722   1.000000
      2        -23.021815   1.000000
      3        -22.804762   1.000000
      4        -22.800159   1.000000
      5        -20.832670   1.000000
      6        -20.823029   1.000000
      7        -20.569941   1.000000
      8        -20.561521   1.000000
      9        -14.076879   1.000000
     10        -14.042703   1.000000
     11        -13.968642   1.000000
     12        -13.941819   1.000000
     13        -10.878031   1.000000
     14        -10.753088   1.000000
     15        -10.330883   1.000000
     16        -10.231373   1.000000
     17         -8.216006   1.000000
     18         -8.044786   1.000000
     19         -7.431689   1.000000
     20         -7.349810   1.000000
     21         -7.284611   1.000000
     22         -7.039776   1.000000
     23         -7.002862   1.000000
     24         -6.828975   1.000000
     25         -6.689836   1.000000
     26         -6.664473   1.000000
     27         -6.628118   1.000000
     28         -6.516301   1.000000
     29         -5.706597   1.000000
     30         -5.542386   1.000000
     31         -5.446088   1.000000
     32         -5.266463   1.000000
     33         -5.120515   1.000000
     34         -4.988015   1.000000
     35         -4.919323   1.000000
     36         -4.751152   1.000000
     37         -4.606331   1.000000
     38         -4.593330   1.000000
     39         -4.541548   1.000000
     40         -4.319058   1.000000
     41         -3.482743   1.000000
     42         -3.456375   1.000000
     43         -3.164441   1.000000
     44         -3.134394   1.000000
     45         -2.477366   1.000000
     46         -2.269664   1.000000
     47         -2.157928   1.000000
     48         -2.060419   1.000000
     49          2.990014   0.000000
     50          3.046198   0.000000
     51          3.398051   0.000000
     52          3.501168   0.000000
     53          4.052700   0.000000
     54          4.914144   0.000000
     55          4.950362   0.000000
     56          6.034840   0.000000
     57          6.207093   0.000000
     58          6.538575   0.000000
     59          6.842450   0.000000
     60          7.076692   0.000000
     61          7.126741   0.000000
     62          7.132092   0.000000
     63          7.746878   0.000000
     64          7.884422   0.000000
     65          8.255752   0.000000
     66          8.528654   0.000000
     67          8.861666   0.000000
     68          8.910196   0.000000
     69          8.966096   0.000000
     70          9.247559   0.000000
     71          9.353545   0.000000
     72          9.868369   0.000000
     73          9.927725   0.000000
     74         10.328931   0.000000
     75         10.498192   0.000000
     76         10.663738   0.000000
     77         10.736396   0.000000
     78         10.921283   0.000000
     79         10.978625   0.000000
     80         11.307303   0.000000
     81         11.502732   0.000000
     82         11.551485   0.000000
     83         12.041861   0.000000
     84         12.054226   0.000000
     85         12.242473   0.000000
     86         12.249742   0.000000
     87         12.867293   0.000000
     88         12.986230   0.000000
     89         13.085928   0.000000
     90         13.209422   0.000000
     91         13.347139   0.000000
     92         13.519685   0.000000
     93         13.830165   0.000000
     94         13.834543   0.000000
     95         14.231235   0.000000
     96         14.300033   0.000000
     97         14.676743   0.000000
     98         14.749309   0.000000
     99         14.951507   0.000000
    100         15.422374   0.000000
    101         15.542202   0.000000
    102         15.664412   0.000000
    103         15.701214   0.000000
    104         15.992544   0.000000
    105         16.161408   0.000000
    106         16.475222   0.000000
    107         16.602717   0.000000
    108         16.611025   0.000000
    109         16.797970   0.000000
    110         16.877204   0.000000
    111         17.093508   0.000000
    112         17.219135   0.000000
    113         17.430885   0.000000
    114         17.632889   0.000000
    115         17.894612   0.000000
    116         17.929033   0.000000
    117         18.212329   0.000000
    118         18.608886   0.000000
    119         18.714196   0.000000
    120         18.800332   0.000000
    121         18.939263   0.000000
    122         19.375223   0.000000
    123         19.740294   0.000000
    124         19.884448   0.000000
    125         19.942067   0.000000
    126         20.340082   0.000000
    127         20.357770   0.000000
    128         20.574503   0.000000

  0.5000000E+00  0.1428571E+00  0.1262379E-14  0.2857143E-01
      1        -23.025086   1.000000
      2        -23.023479   1.000000
      3        -22.802621   1.000000
      4        -22.802246   1.000000
      5        -20.832556   1.000000
      6        -20.823143   1.000000
      7        -20.569852   1.000000
      8        -20.561592   1.000000
      9        -14.063209   1.000000
     10        -14.060744   1.000000
     11        -13.954070   1.000000
     12        -13.952001   1.000000
     13        -10.824218   1.000000
     14        -10.819728   1.000000
     15        -10.275996   1.000000
     16        -10.273002   1.000000
     17         -8.143085   1.000000
     18         -8.135741   1.000000
     19         -7.383824   1.000000
     20         -7.382980   1.000000
     21         -7.191747   1.000000
     22         -7.189845   1.000000
     23         -6.888752   1.000000
     24         -6.887174   1.000000
     25         -6.681404   1.000000
     26         -6.680071   1.000000
     27         -6.571079   1.000000
     28         -6.569526   1.000000
     29         -5.608726   1.000000
     30         -5.606639   1.000000
     31         -5.412686   1.000000
     32         -5.410319   1.000000
     33         -5.025375   1.000000
     34         -5.023214   1.000000
     35         -4.819368   1.000000
     36         -4.816736   1.000000
     37         -4.602941   1.000000
     38         -4.602100   1.000000
     39         -4.436841   1.000000
     40         -4.434030   1.000000
     41         -3.474613   1.000000
     42         -3.468751   1.000000
     43         -3.150086   1.000000
     44         -3.145376   1.000000
     45         -2.385539   1.000000
     46         -2.383101   1.000000
     47         -2.096114   1.000000
     48         -2.094056   1.000000
     49          3.020041   0.000000
     50          3.020844   0.000000
     51          3.442872   0.000000
     52          3.443976   0.000000
     53          4.301879   0.000000
     54          4.304196   0.000000
     55          5.694587   0.000000
     56          5.697650   0.000000
     57          6.266421   0.000000
     58          6.267920   0.000000
     59          6.892728   0.000000
     60          6.893998   0.000000
     61          7.338942   0.000000
     62          7.340584   0.000000
     63          7.897601   0.000000
     64          7.900747   0.000000
     65          8.152151   0.000000
     66          8.154535   0.000000
     67          8.968187   0.000000
     68          8.971503   0.000000
     69          9.153824   0.000000
     70          9.155756   0.000000
     71          9.425809   0.000000
     72          9.430659   0.000000
     73         10.405474   0.000000
     74         10.408813   0.000000
     75         10.462688   0.000000
     76         10.465604   0.000000
     77         10.752313   0.000000
     78         10.755573   0.000000
     79         11.171377   0.000000
     80         11.176927   0.000000
     81         11.678217   0.000000
     82         11.682849   0.000000
     83         11.968974   0.000000
     84         11.973296   0.000000
     85         12.239855   0.000000
     86         12.244499   0.000000
     87         12.734579   0.000000
     88         12.738560   0.000000
     89         13.057924   0.000000
     90         13.059955   0.000000
     91         13.648472   0.000000
     92         13.653419   0.000000
     93         13.848497   0.000000
     94         13.850679   0.000000
     95         14.352722   0.000000
     96         14.354982   0.000000
     97         14.822712   0.000000
     98         14.825536   0.000000
     99         15.016940   0.000000
    100         15.023608   0.000000
    101         15.659537   0.000000
    102         15.664286   0.000000
    103         15.807186   0.000000
    104         15.809655   0.000000
    105         16.181015   0.000000
    106         16.183149   0.000000
    107         16.528568   0.000000
    108         16.532756   0.000000
    109         16.907092   0.000000
    110         16.910031   0.000000
    111         17.088665   0.000000
    112         17.092516   0.000000
    113         17.408435   0.000000
    114         17.411142   0.000000
    115         18.060766   0.000000
    116         18.063514   0.000000
    117         18.517588   0.000000
    118         18.520519   0.000000
    119         18.784648   0.000000
    120         18.787448   0.000000
    121         19.540825   0.000000
    122         19.544396   0.000000
    123         19.684863   0.000000
    124         19.688251   0.000000
    125         19.995265   0.000000
    126         19.998275   0.000000
    127         20.437961   0.000000
    128         20.441186   0.000000

  0.1262378E-14  0.2857143E+00  0.1262379E-14  0.2857143E-01
      1        -22.973885   1.000000
      2        -22.970167   1.000000
      3        -22.817618   1.000000
      4        -22.814464   1.000000
      5        -20.802495   1.000000
      6        -20.793341   1.000000
      7        -20.617975   1.000000
      8        -20.609254   1.000000
      9        -14.027082   1.000000
     10        -14.007166   1.000000
     11        -13.912598   1.000000
     12        -13.893360   1.000000
     13        -10.767420   1.000000
     14        -10.675397   1.000000
     15        -10.394947   1.000000
     16        -10.316231   1.000000
     17         -8.065774   1.000000
     18         -7.977486   1.000000
     19         -7.612005   1.000000
     20         -7.469155   1.000000
     21         -7.240460   1.000000
     22         -7.074078   1.000000
     23         -7.027379   1.000000
     24         -6.954108   1.000000
     25         -6.899395   1.000000
     26         -6.878417   1.000000
     27         -6.831542   1.000000
     28         -6.754406   1.000000
     29         -5.714967   1.000000
     30         -5.655045   1.000000
     31         -5.489631   1.000000
     32         -5.428008   1.000000
     33         -5.188612   1.000000
     34         -5.058681   1.000000
     35         -4.997804   1.000000
     36         -4.757567   1.000000
     37         -4.714044   1.000000
     38         -4.646732   1.000000
     39         -4.449256   1.000000
     40         -4.413031   1.000000
     41         -3.337527   1.000000
     42         -3.307169   1.000000
     43         -3.124349   1.000000
     44         -3.087512   1.000000
     45         -2.428255   1.000000
     46         -2.297857   1.000000
     47         -2.238968   1.000000
     48         -2.114517   1.000000
     49          3.046436   0.000000
     50          3.124621   0.000000
     51          3.336811   0.000000
     52          3.470616   0.000000
     53          4.891915   0.000000
     54          5.445800   0.000000
     55          5.604437   0.000000
     56          6.205998   0.000000
     57          6.231343   0.000000
     58          6.848433   0.000000
     59          7.243363   0.000000
     60          7.338734   0.000000
     61          7.355484   0.000000
     62          7.499043   0.000000
     63          7.850131   0.000000
     64          7.942961   0.000000
     65          8.350395   0.000000
     66          8.535368   0.000000
     67          8.545812   0.000000
     68          8.778322   0.000000
     69          9.029362   0.000000
     70          9.076563   0.000000
     71          9.293151   0.000000
     72          9.446792   0.000000
     73          9.689074   0.000000
     74          9.818658   0.000000
     75         10.141206   0.000000
     76         10.333460   0.000000
     77         10.579905   0.000000
     78         10.912524   0.000000
     79         11.040506   0.000000
     80         11.061268   0.000000
     81         11.101006   0.000000
     82         11.340288   0.000000
     83         11.735781   0.000000
     84         11.744136   0.000000
     85         12.190192   0.000000
     86         12.400014   0.000000
     87         12.821636   0.000000
     88         12.906619   0.000000
     89         13.098922   0.000000
     90         13.316720   0.000000
     91         13.422922   0.000000
     92         13.568692   0.000000
     93         13.750914   0.000000
     94         14.133141   0.000000
     95         14.166414   0.000000
     96         14.340665   0.000000
     97         14.853771   0.000000
     98         14.911909   0.000000
     99         15.293088   0.000000
    100         15.437913   0.000000
    101         15.659225   0.000000
    102         15.743842   0.000000
    103         15.904590   0.000000
    104         15.932824   0.000000
    105         16.449586   0.000000
    106         16.619274   0.000000
    107         16.717003   0.000000
    108         17.137400   0.000000
    109         17.161202   0.000000
    110         17.435494   0.000000
    111         17.523357   0.000000
    112         17.850601   0.000000
    113         17.943241   0.000000
    114         18.017063   0.000000
    115         18.425385   0.000000
    116         18.466743   0.000000
    117         18.527334   0.000000
    118         19.005612   0.000000
    119         19.062094   0.000000
    120         19.232005   0.000000
    121         19.271690   0.000000
    122         19.321785   0.000000
    123         19.542610   0.000000
    124         19.919840   0.000000
    125         19.932060   0.000000
    126         20.283513   0.000000
    127         20.403384   0.000000
    128         20.634122   0.000000

  0.5000000E+00  0.2857143E+00  0.1262379E-14  0.2857143E-01
      1        -22.972771   1.000000
      2        -22.971311   1.000000
      3        -22.816338   1.000000
      4        -22.815702   1.000000
      5        -20.802364   1.000000
      6        -20.793470   1.000000
      7        -20.617899   1.000000
      8        -20.609317   1.000000
      9        -14.019121   1.000000
     10        -14.016754   1.000000
     11        -13.903240   1.000000
     12        -13.901071   1.000000
     13        -10.728634   1.000000
     14        -10.724239   1.000000
     15        -10.352336   1.000000
     16        -10.348776   1.000000
     17         -8.030905   1.000000
     18         -8.024663   1.000000
     19         -7.534815   1.000000
     20         -7.532732   1.000000
     21         -7.179708   1.000000
     22         -7.178083   1.000000
     23         -6.979821   1.000000
     24         -6.978489   1.000000
     25         -6.877062   1.000000
     26         -6.875916   1.000000
     27         -6.798633   1.000000
     28         -6.796037   1.000000
     29         -5.720666   1.000000
     30         -5.718965   1.000000
     31         -5.387012   1.000000
     32         -5.385369   1.000000
     33         -5.177242   1.000000
     34         -5.175999   1.000000
     35         -4.878416   1.000000
     36         -4.876670   1.000000
     37         -4.664943   1.000000
     38         -4.662843   1.000000
     39         -4.434419   1.000000
     40         -4.432595   1.000000
     41         -3.326694   1.000000
     42         -3.320723   1.000000
     43         -3.106833   1.000000
     44         -3.101417   1.000000
     45         -2.375213   1.000000
     46         -2.372877   1.000000
     47         -2.164919   1.000000
     48         -2.162867   1.000000
     49          3.080938   0.000000
     50          3.081972   0.000000
     51          3.406289   0.000000
     52          3.407067   0.000000
     53          5.050754   0.000000
     54          5.053117   0.000000
     55          6.096409   0.000000
     56          6.098596   0.000000
     57          6.380304   0.000000
     58          6.382639   0.000000
     59          7.253298   0.000000
     60          7.254428   0.000000
     61          7.616024   0.000000
     62          7.618776   0.000000
     63          7.940460   0.000000
     64          7.942924   0.000000
     65          8.179200   0.000000
     66          8.183543   0.000000
     67          8.791010   0.000000
     68          8.795572   0.000000
     69          9.065926   0.000000
     70          9.069501   0.000000
     71          9.397000   0.000000
     72          9.400870   0.000000
     73          9.724881   0.000000
     74          9.727988   0.000000
     75         10.396532   0.000000
     76         10.400032   0.000000
     77         10.495792   0.000000
     78         10.500120   0.000000
     79         10.954767   0.000000
     80         10.957244   0.000000
     81         11.515742   0.000000
     82         11.518657   0.000000
     83         11.627288   0.000000
     84         11.630920   0.000000
     85         12.194271   0.000000
     86         12.195958   0.000000
     87         13.068206   0.000000
     88         13.072422   0.000000
     89         13.099282   0.000000
     90         13.108975   0.000000
     91         13.541369   0.000000
     92         13.545501   0.000000
     93         13.892144   0.000000
     94         13.896509   0.000000
     95         14.345302   0.000000
     96         14.350839   0.000000
     97         14.738538   0.000000
     98         14.742157   0.000000
     99         15.157503   0.000000
    100         15.160620   0.000000
    101         15.742625   0.000000
    102         15.745516   0.000000
    103         16.080881   0.000000
    104         16.082609   0.000000
    105         16.643244   0.000000
    106         16.648657   0.000000
    107         16.978878   0.000000
    108         16.980388   0.000000
    109         17.281807   0.000000
    110         17.282619   0.000000
    111         17.648321   0.000000
    112         17.649823   0.000000
    113         18.087946   0.000000
    114         18.090298   0.000000
    115         18.373441   0.000000
    116         18.374051   0.000000
    117         18.622484   0.000000
    118         18.626634   0.000000
    119         19.033725   0.000000
    120         19.035446   0.000000
    121         19.436189   0.000000
    122         19.437822   0.000000
    123         19.719158   0.000000
    124         19.721672   0.000000
    125         20.219380   0.000000
    126         20.222224   0.000000
    127         20.347007   0.000000
    128         20.349815   0.000000

  0.1262379E-14  0.4285714E+00  0.1262379E-14  0.2857143E-01
      1        -22.907692   1.000000
      2        -22.905682   1.000000
      3        -22.850985   1.000000
      4        -22.849400   1.000000
      5        -20.750857   1.000000
      6        -20.743024   1.000000
      7        -20.684185   1.000000
      8        -20.674283   1.000000
      9        -13.985265   1.000000
     10        -13.978892   1.000000
     11        -13.863900   1.000000
     12        -13.856654   1.000000
     13        -10.609207   1.000000
     14        -10.574240   1.000000
     15        -10.478000   1.000000
     16        -10.446557   1.000000
     17         -7.922079   1.000000
     18         -7.846181   1.000000
     19         -7.803860   1.000000
     20         -7.648573   1.000000
     21         -7.180689   1.000000
     22         -7.161883   1.000000
     23         -7.158403   1.000000
     24         -7.049643   1.000000
     25         -7.047959   1.000000