       N       E                     dE             d eps       ncg     rms          ort
SDA:   1    -0.166383103708E+03   -0.16638E+03    0.00000E+00  4608   0.414E+00 0.000E+00
CGA:   2    -0.166583755153E+03   -0.20065E+00   -0.20051E+00  4608   0.434E-01 0.515E-03
CGA:   3    -0.166598986718E+03   -0.15232E-01   -0.15231E-01  4608   0.417E-02 0.150E-04
CGA:   4    -0.166600356701E+03   -0.13700E-02   -0.13705E-02  4608   0.756E-03-0.520E-05
CGA:   5    -0.166600682993E+03   -0.32629E-03   -0.32623E-03  4608   0.207E-03 0.288E-06
CGA:   6    -0.166600786685E+03   -0.10369E-03   -0.10343E-03  4608   0.528E-04 0.990E-06
CGA:   7    -0.166600809809E+03   -0.23124E-04   -0.23072E-04  4608   0.726E-05 0.281E-06
CGA:   8    -0.166600812876E+03   -0.30673E-05   -0.30717E-05  4608   0.103E-05-0.279E-07
CGA:   9    -0.166600813269E+03   -0.39264E-06   -0.39224E-06  4608   0.173E-06 0.265E-08
CGA:  10    -0.166600813341E+03   -0.71999E-07   -0.72452E-07  4608   0.279E-07-0.306E-08
CGA:  11    -0.166600813355E+03   -0.14326E-07   -0.15672E-07  4608   0.746E-08-0.460E-08
CGA:  12    -0.166600813356E+03   -0.14297E-08   -0.15259E-08  4608   0.211E-08 0.254E-08
   1 F= -.16660081E+03 E0= -.16660081E+03  d E =-.611661E-15
