 vasp.6.4.1 05Apr23 (build Jun  6 2023 14:36:51) complex                         
 executed on        HPECrayEX_GCC date 2024.08.20  15:38:02
 running  256 mpi-ranks, with    1 threads/rank, on    2 nodes
 distrk:  each k-point on  128 cores,    2 groups
 distr:  one band on NCORE=  32 cores,    4 groups


--------------------------------------------------------------------------------------------------------


 INCAR:
   ALGO = Conjugate
   KPAR = 2
   NCORE = 32
   ISMEAR = 0
   SIGMA = 0.01
   PREC = Accurate
   EDIFF = 1E-7
   ENCUT = 1000
   ISIF = 0
   METAGGA = RSCAN
   LASPH = .TRUE.
   SYMPREC = 1E-7
   LWAVE = .FALSE.
   LCHARG = .FALSE.
   LWAVE = .FALSE.
   LCHARGE = .FALSE.

 POTCAR:    PAW_PBE C_h 06Feb2004                 
 POTCAR:    PAW_PBE H_h 06Feb2004                 
 POTCAR:    PAW_PBE O_h 06Feb2004                 
 POTCAR:    PAW_PBE C_h 06Feb2004                 
   VRHFIN =C: s2p2                                                                                  
   LEXCH  = PE                                                                                      
   EATOM  =   147.1560 eV,   10.8157 Ry                                                             
                                                                                                    
   TITEL  = PAW_PBE C_h 06Feb2004                                                                   
   LULTRA =        F    use ultrasoft PP ?                                                          
   IUNSCR =        1    unscreen: 0-lin 1-nonlin 2-no                                               
   RPACOR =    0.800    partial core radius                                                         
   POMASS =   12.011; ZVAL   =    4.000    mass and valenz                                          
   RCORE  =    1.100    outmost cutoff radius                                                       
   RWIGS  =    1.630; RWIGS  =    0.863    wigner-seitz radius (au A)                               
   ENMAX  =  700.000; ENMIN  =  500.000 eV                                                          
   ICORE  =        2    local potential                                                             
   LCOR   =        T    correct aug charges                                                         
   LPAW   =        T    paw PP                                                                      
   EAUG   =  946.768                                                                                
   DEXC   =    0.000                                                                                
   RMAX   =    1.128    core radius for proj-oper                                                   
   RAUG   =    1.300    factor for augmentation sphere                                              
   RDEP   =    1.162    radius for radial grids                                                     
   RDEPT  =    1.088    core radius for aug-charge                                                  
                                                                                                    
   Atomic configuration                                                                             
    4 entries                                                                                       
     n  l   j            E        occ.                                                              
     1  0  0.50      -273.3789   2.0000                                                             
     2  0  0.50       -13.7508   2.0000                                                             
     2  1  0.50        -5.2854   2.0000                                                             
     3  2  1.50        -5.4423   0.0000                                                             
   Description                                                                                      
     l       E           TYP  RCUT    TYP  RCUT                                                     
     0    -13.7508458     23  1.100                                                                 
     0     -8.2022199     23  1.100                                                                 
     1     -5.2854383     23  1.100                                                                 
     1      1.1560700     23  1.100                                                                 
     2     -5.4423304      7  1.100                                                                 
  local pseudopotential read in
  partial core-charges read in
  partial kinetic energy density read in
  atomic valenz-charges read in
  non local Contribution for L=           0  read in
    real space projection operators read in
  non local Contribution for L=           0  read in
    real space projection operators read in
  non local Contribution for L=           1  read in
    real space projection operators read in
  non local Contribution for L=           1  read in
    real space projection operators read in
    PAW grid and wavefunctions read in

   number of l-projection  operators is LMAX  =           4
   number of lm-projection operators is LMMAX =           8

 POTCAR:    PAW_PBE H_h 06Feb2004                 
   VRHFIN =H: ultrasoft test                                                                        
   LEXCH  = PE                                                                                      
   EATOM  =    12.4884 eV,    0.9179 Ry                                                             
                                                                                                    
   TITEL  = PAW_PBE H_h 06Feb2004                                                                   
   LULTRA =        F    use ultrasoft PP ?                                                          
   IUNSCR =        0    unscreen: 0-lin 1-nonlin 2-no                                               
   RPACOR =    0.000    partial core radius                                                         
   POMASS =    1.000; ZVAL   =    1.000    mass and valenz                                          
   RCORE  =    0.800    outmost cutoff radius                                                       
   RWIGS  =    0.700; RWIGS  =    0.370    wigner-seitz radius (au A)                               
   ENMAX  =  700.000; ENMIN  =  350.000 eV                                                          
   RCLOC  =    0.701    cutoff for local pot                                                        
   LCOR   =        T    correct aug charges                                                         
   LPAW   =        T    paw PP                                                                      
   EAUG   = 1000.000                                                                                
   RMAX   =    0.819    core radius for proj-oper                                                   
   RAUG   =    1.000    factor for augmentation sphere                                              
   RDEP   =    0.817    radius for radial grids                                                     
   RDEPT  =    0.817    core radius for aug-charge                                                  
                                                                                                    
   Atomic configuration                                                                             
    2 entries                                                                                       
     n  l   j            E        occ.                                                              
     1  0  0.50        -6.4927   1.0000                                                             
     2  1  0.50        -3.4015   0.0000                                                             
   Description                                                                                      
     l       E           TYP  RCUT    TYP  RCUT                                                     
     0     -6.4927493     23  0.800                                                                 
     0      6.8029130     23  0.800                                                                 
     1     -6.8029130     23  0.800                                                                 
  local pseudopotential read in
  atomic valenz-charges read in
  non local Contribution for L=           0  read in
    real space projection operators read in
  non local Contribution for L=           0  read in
    real space projection operators read in
  non local Contribution for L=           1  read in
    real space projection operators read in
    PAW grid and wavefunctions read in

   number of l-projection  operators is LMAX  =           3
   number of lm-projection operators is LMMAX =           5

 POTCAR:    PAW_PBE O_h 06Feb2004                 
   VRHFIN =O: s2p4                                                                                  
   LEXCH  = PE                                                                                      
   EATOM  =   432.3788 eV,   31.7789 Ry                                                             
                                                                                                    
   TITEL  = PAW_PBE O_h 06Feb2004                                                                   
   LULTRA =        F    use ultrasoft PP ?                                                          
   IUNSCR =        1    unscreen: 0-lin 1-nonlin 2-no                                               
   RPACOR =    0.800    partial core radius                                                         
   POMASS =   16.000; ZVAL   =    6.000    mass and valenz                                          
   RCORE  =    1.100    outmost cutoff radius                                                       
   RWIGS  =    1.400; RWIGS  =    0.741    wigner-seitz radius (au A)                               
   ENMAX  =  700.000; ENMIN  =  500.000 eV                                                          
   ICORE  =        2    local potential                                                             
   LCOR   =        T    correct aug charges                                                         
   LPAW   =        T    paw PP                                                                      
   EAUG   =  888.804                                                                                
   DEXC   =    0.000                                                                                
   RMAX   =    1.128    core radius for proj-oper                                                   
   RAUG   =    1.300    factor for augmentation sphere                                              
   RDEP   =    1.125    radius for radial grids                                                     
   RDEPT  =    1.088    core radius for aug-charge                                                  
                                                                                                    
   Atomic configuration                                                                             
    4 entries                                                                                       
     n  l   j            E        occ.                                                              
     1  0  0.50      -514.6923   2.0000                                                             
     2  0  0.50       -23.9615   2.0000                                                             
     2  1  0.50        -9.0305   4.0000                                                             
     3  2  1.50        -9.5241   0.0000                                                             
   Description                                                                                      
     l       E           TYP  RCUT    TYP  RCUT                                                     
     0    -23.9615319     23  1.100                                                                 
     0    -25.3221145     23  1.100                                                                 
     1     -9.0304911     23  1.100                                                                 
     1     -5.4802209     23  1.100                                                                 
     2     -9.5240782      7  1.100                                                                 
  local pseudopotential read in
  partial core-charges read in
  partial kinetic energy density read in
  atomic valenz-charges read in
  non local Contribution for L=           0  read in
    real space projection operators read in
  non local Contribution for L=           0  read in
    real space projection operators read in
  non local Contribution for L=           1  read in
    real space projection operators read in
  non local Contribution for L=           1  read in
    real space projection operators read in
    PAW grid and wavefunctions read in

   number of l-projection  operators is LMAX  =           4
   number of lm-projection operators is LMMAX =           8

 -----------------------------------------------------------------------------
|                                                                             |
|               ----> ADVICE to this user running VASP <----                  |
|                                                                             |
|     You have a (more or less) 'large supercell' and for larger cells it     |
|     might be more efficient to use real-space projection operators.         |
|     Therefore, try LREAL= Auto in the INCAR file.                           |
|     Mind: For very accurate calculation, you might also keep the            |
|     reciprocal projection scheme (i.e. LREAL=.FALSE.).                      |
|                                                                             |
 -----------------------------------------------------------------------------

  PAW_PBE C_h 06Feb2004                 :
 energy of atom  1       EATOM= -147.1560
 kinetic energy error for atom=    0.0031 (will be added to EATOM!!)
  PAW_PBE H_h 06Feb2004                 :
 energy of atom  2       EATOM=  -12.4884
 kinetic energy error for atom=    0.0006 (will be added to EATOM!!)
  PAW_PBE O_h 06Feb2004                 :
 energy of atom  3       EATOM= -432.3788
 kinetic energy error for atom=    0.0171 (will be added to EATOM!!)


 POSCAR:  C  H  O
  positions in cartesian coordinates
  No initial velocities read in

 METAGGA = RSCAN                                       LMAXTAU =  6    LMIXTAU =  F

 exchange correlation table for  LEXCH =        8
   RHO(1)=    0.500       N(1)  =     2000
   RHO(2)=  100.500       N(2)  =     4000

 VTST: version 4.1, (05/19/21)

 CHAIN: initializing optimizer
 
 OPT: Using VASP Dynamics algorithm
 CHAIN: Read ICHAIN            0

 POSCAR:  C  H  O
  positions in cartesian coordinates
  No initial velocities read in



--------------------------------------------------------------------------------------------------------


 ion  position               nearest neighbor table
   1  0.136  0.151  0.984-  37 1.09  19 1.11  56 1.43  55 1.43
   2  0.849  0.985  0.984-  38 1.09  20 1.11  57 1.43  56 1.43
   3  0.015  0.864  0.984-  39 1.09  21 1.11  55 1.43  57 1.43
   4  0.849  0.864  0.484-  40 1.09  22 1.11  59 1.43  58 1.43
   5  0.015  0.151  0.484-  41 1.09  23 1.11  60 1.43  59 1.43
   6  0.136  0.985  0.484-  42 1.09  24 1.11  58 1.43  60 1.43
   7  0.803  0.484  0.318-  43 1.09  25 1.11  62 1.43  61 1.43
   8  0.516  0.318  0.318-  44 1.09  26 1.11  63 1.43  62 1.43
   9  0.682  0.197  0.318-  45 1.09  27 1.11  61 1.43  63 1.43
  10  0.516  0.197  0.818-  46 1.09  28 1.11  65 1.43  64 1.43
  11  0.682  0.484  0.818-  47 1.09  29 1.11  66 1.43  65 1.43
  12  0.803  0.318  0.818-  48 1.09  30 1.11  64 1.43  66 1.43
  13  0.469  0.818  0.651-  49 1.09  31 1.11  68 1.43  67 1.43
  14  0.182  0.651  0.651-  50 1.09  32 1.11  69 1.43  68 1.43
  15  0.349  0.531  0.651-  51 1.09  33 1.11  67 1.43  69 1.43
  16  0.182  0.531  0.151-  52 1.09  34 1.11  71 1.43  70 1.43
  17  0.349  0.818  0.151-  53 1.09  35 1.11  72 1.43  71 1.43
  18  0.469  0.651  0.151-  54 1.09  36 1.11  70 1.43  72 1.43
  19  0.137  0.153  0.849-   1 1.11
  20  0.847  0.985  0.849-   2 1.11
  21  0.015  0.863  0.849-   3 1.11
  22  0.847  0.863  0.349-   4 1.11
  23  0.015  0.153  0.349-   5 1.11
  24  0.137  0.985  0.349-   6 1.11
  25  0.804  0.486  0.183-   7 1.11
  26  0.514  0.318  0.183-   8 1.11
  27  0.682  0.196  0.183-   9 1.11
  28  0.514  0.196  0.683-  10 1.11
  29  0.682  0.486  0.683-  11 1.11
  30  0.804  0.318  0.683-  12 1.11
  31  0.471  0.819  0.516-  13 1.11
  32  0.181  0.651  0.516-  14 1.11
  33  0.349  0.529  0.516-  15 1.11
  34  0.181  0.529  0.016-  16 1.11
  35  0.349  0.819  0.016-  17 1.11
  36  0.471  0.651  0.016-  18 1.11
  37  0.238  0.265  0.035-   1 1.09
  38  0.735  0.973  0.035-   2 1.09
  39  0.027  0.762  0.035-   3 1.09
  40  0.735  0.762  0.535-   4 1.09
  41  0.027  0.265  0.535-   5 1.09
  42  0.238  0.973  0.535-   6 1.09
  43  0.905  0.598  0.369-   7 1.09
  44  0.402  0.307  0.369-   8 1.09
  45  0.693  0.095  0.369-   9 1.09
  46  0.402  0.095  0.869-  10 1.09
  47  0.693  0.598  0.869-  11 1.09
  48  0.905  0.307  0.869-  12 1.09
  49  0.571  0.931  0.702-  13 1.09
  50  0.069  0.640  0.702-  14 1.09
  51  0.360  0.429  0.702-  15 1.09
  52  0.069  0.429  0.202-  16 1.09
  53  0.360  0.931  0.202-  17 1.09
  54  0.571  0.640  0.202-  18 1.09
  55  0.152  0.015  0.042-   3 1.43   1 1.43
  56  0.985  0.137  0.042-   1 1.43   2 1.43
  57  0.863  0.848  0.042-   2 1.43   3 1.43
  58  0.985  0.848  0.542-   6 1.43   4 1.43
  59  0.863  0.015  0.542-   4 1.43   5 1.43
  60  0.152  0.137  0.542-   5 1.43   6 1.43
  61  0.819  0.349  0.375-   9 1.43   7 1.43
  62  0.651  0.470  0.375-   7 1.43   8 1.43
  63  0.530  0.181  0.375-   8 1.43   9 1.43
  64  0.651  0.181  0.875-  12 1.43  10 1.43
  65  0.530  0.349  0.875-  10 1.43  11 1.43
  66  0.819  0.470  0.875-  11 1.43  12 1.43
  67  0.486  0.682  0.708-  15 1.43  13 1.43
  68  0.318  0.804  0.708-  13 1.43  14 1.43
  69  0.196  0.514  0.708-  14 1.43  15 1.43
  70  0.318  0.514  0.208-  18 1.43  16 1.43
  71  0.196  0.682  0.208-  16 1.43  17 1.43
  72  0.486  0.804  0.208-  17 1.43  18 1.43

  LATTYP: Found a base centered orthorhombic cell.
 ALAT       =     9.3200000000
 B/A-ratio  =     1.7320515021
 C/A-ratio  =     0.8793991416
  
  Lattice vectors:
  
 A1 = (   4.6600000000,  -8.0713600000,   0.0000000000)
 A2 = (   4.6600000000,   8.0713600000,   0.0000000000)
 A3 = (   0.0000000000,   0.0000000000,   8.1960000000)


Analysis of symmetry for initial positions (statically):
=====================================================================
 Subroutine PRICEL returns:
 Original cell was already a primitive cell.
 

 Routine SETGRP: Setting up the symmetry group for a 
 base centered orthorhombic supercell.


 Subroutine GETGRP returns: Found  1 space group operations
 (whereof  1 operations were pure point group operations)
 out of a pool of  8 trial point group operations.


The static configuration has the point symmetry C_1 .


Analysis of symmetry for dynamics (positions and initial velocities):
=====================================================================
 Subroutine PRICEL returns:
 Original cell was already a primitive cell.
 

 Routine SETGRP: Setting up the symmetry group for a 
 base centered orthorhombic supercell.


 Subroutine GETGRP returns: Found  1 space group operations
 (whereof  1 operations were pure point group operations)
 out of a pool of  8 trial point group operations.


The dynamic configuration has the point symmetry C_1 .


 Subroutine INISYM returns: Found  1 space group operations
 (whereof  1 operations are pure point group operations),
 and found     1 'primitive' translations


----------------------------------------------------------------------------------------

                                     Primitive cell                                     

  volume of cell :     616.5447

  direct lattice vectors                    reciprocal lattice vectors
     9.320000000  0.000000000  0.000000000     0.107296137  0.061947429 -0.000000000
    -4.660000000  8.071360000  0.000000000     0.000000000  0.123894858  0.000000000
     0.000000000  0.000000000  8.196000000     0.000000000 -0.000000000  0.122010737

  length of vectors
     9.320000000  9.320002803  8.196000000     0.123894895  0.123894858  0.122010737

  position of ions in fractional coordinates (direct lattice)
     0.135904643  0.151116999  0.984159744
     0.848878840  0.984657268  0.984160514
     0.015337269  0.864089567  0.984156937
     0.848883001  0.864095357  0.484159744
     0.015342732  0.151121160  0.484160514
     0.135910433  0.984662731  0.484156937
     0.802625554  0.484391124  0.317564893
     0.515607537  0.318101627  0.317565042
     0.681896286  0.197374229  0.317567365
     0.515608876  0.197374446  0.817564893
     0.681898373  0.484392463  0.817565042
     0.802625771  0.318103714  0.817567365
     0.469263297  0.817742541  0.650801033
     0.182251176  0.651395362  0.650802214
     0.348598691  0.530730039  0.650796734
     0.182257459  0.530736703  0.150801033
     0.348604638  0.817748824  0.150802214
     0.469269961  0.651401309  0.150796734
     0.137329553  0.152579090  0.849188935
     0.847420435  0.984626222  0.849189985
     0.015369033  0.862661441  0.849186741
     0.847420910  0.862670447  0.349188935
     0.015373778  0.152579565  0.349189985
     0.137338559  0.984630967  0.349186741
     0.803990740  0.485792207  0.182606970
     0.514208064  0.318065641  0.182607061
     0.681932573  0.196006765  0.182609508
     0.514207793  0.196009260  0.682606970
     0.681934359  0.485791936  0.682607061
     0.803993235  0.318067427  0.682609508
     0.470670931  0.819185818  0.515844488
     0.180815181  0.651371156  0.515844867
     0.348626805  0.529318859  0.515839486
     0.180814182  0.529329069  0.015844488
     0.348628844  0.819184819  0.015844867
     0.470681141  0.651373195  0.015839486
     0.238059041  0.264508950  0.035495087
     0.735486227  0.973418271  0.035495263
     0.026577020  0.761936585  0.035491950
     0.735491050  0.761940959  0.535495087
     0.026581729  0.264513773  0.535495263
     0.238063415  0.973422980  0.535491950
     0.904839442  0.597776794  0.368844310
     0.402223185  0.306931373  0.368845003
     0.693069368  0.095160904  0.368845452
     0.402223206  0.095160558  0.868844310
     0.693068627  0.597776815  0.868845003
     0.904839096  0.306930632  0.868845452
     0.571455473  0.931121620  0.702137559
     0.068873591  0.640206334  0.702135575
     0.359787037  0.428540264  0.702130487
     0.068878380  0.428544527  0.202137559
     0.359793666  0.931126409  0.202135575
     0.571459736  0.640212963  0.202130487
     0.152388863  0.015337269  0.041548117
     0.984657517  0.136918072  0.041557912
     0.863074125  0.847605698  0.041551430
     0.984662731  0.847611137  0.541548117
     0.863081928  0.015342483  0.541557912
     0.152394302  0.136925875  0.541551430
     0.819022610  0.348529107  0.374962480
     0.651471486  0.470363532  0.374964008
     0.529636662  0.180979384  0.374963054
     0.651470893  0.180977390  0.874962480
     0.529636468  0.348528514  0.874964008
     0.819020616  0.470363338  0.874963054
     0.485688822  0.681902346  0.708153138
     0.318092062  0.803658475  0.708165440
     0.196331512  0.514303628  0.708155690
     0.318097654  0.514311178  0.208153138
     0.196341525  0.681907938  0.208165440
     0.485696372  0.803668488  0.208155690

  ion indices of the primitive-cell ions
   primitive index   ion index
                 1           1
                 2           2
                 3           3
                 4           4
                 5           5
                 6           6
                 7           7
                 8           8
                 9           9
                10          10
                11          11
                12          12
                13          13
                14          14
                15          15
                16          16
                17          17
                18          18
                19          19
                20          20
                21          21
                22          22
                23          23
                24          24
                25          25
                26          26
                27          27
                28          28
                29          29
                30          30
                31          31
                32          32
                33          33
                34          34
                35          35
                36          36
                37          37
                38          38
                39          39
                40          40
                41          41
                42          42
                43          43
                44          44
                45          45
                46          46
                47          47
                48          48
                49          49
                50          50
                51          51
                52          52
                53          53
                54          54
                55          55
                56          56
                57          57
                58          58
                59          59
                60          60
                61          61
                62          62
                63          63
                64          64
                65          65
                66          66
                67          67
                68          68
                69          69
                70          70
                71          71
                72          72

----------------------------------------------------------------------------------------



 KPOINTS: auto                                    

Automatic generation of k-mesh.
 Grid dimensions read from file:
 generate k-points for:    3    3    3

 Generating k-lattice:

  Cartesian coordinates                     Fractional coordinates (reciprocal lattice)
     0.035765379  0.020649143 -0.000000000     0.333333333 -0.000000000  0.000000000
     0.000000000  0.041298286  0.000000000     0.000000000  0.333333333  0.000000000
     0.000000000 -0.000000000  0.040670246     0.000000000  0.000000000  0.333333333

  Length of vectors
     0.041298298  0.041298286  0.040670246

  Shift w.r.t. Gamma in fractional coordinates (k-lattice)
     0.000000000  0.000000000  0.000000000

 
 Subroutine IBZKPT returns following result:
 ===========================================
 
 Found     14 irreducible k-points:
 
 Following reciprocal coordinates:
            Coordinates               Weight
  0.000000  0.000000  0.000000      1.000000
  0.333333  0.000000  0.000000      2.000000
  0.333333 -0.333333  0.000000      2.000000
  0.000000  0.333333  0.000000      2.000000
  0.333333  0.333333  0.000000      2.000000
  0.000000  0.000000  0.333333      2.000000
  0.333333  0.000000  0.333333      2.000000
 -0.333333  0.000000  0.333333      2.000000
  0.333333 -0.333333 -0.333333      2.000000
 -0.333333  0.333333 -0.333333      2.000000
  0.000000  0.333333  0.333333      2.000000
  0.000000 -0.333333  0.333333      2.000000
  0.333333  0.333333  0.333333      2.000000
 -0.333333 -0.333333  0.333333      2.000000
 
 Following cartesian coordinates:
            Coordinates               Weight
  0.000000  0.000000  0.000000      1.000000
  0.035765  0.020649  0.000000      2.000000
  0.035765 -0.020649  0.000000      2.000000
  0.000000  0.041298  0.000000      2.000000
  0.035765  0.061947  0.000000      2.000000
  0.000000  0.000000  0.040670      2.000000
  0.035765  0.020649  0.040670      2.000000
 -0.035765 -0.020649  0.040670      2.000000
  0.035765 -0.020649 -0.040670      2.000000
 -0.035765  0.020649 -0.040670      2.000000
  0.000000  0.041298  0.040670      2.000000
  0.000000 -0.041298  0.040670      2.000000
  0.035765  0.061947  0.040670      2.000000
 -0.035765 -0.061947  0.040670      2.000000
 


--------------------------------------------------------------------------------------------------------




 Dimension of arrays:
   k-points           NKPTS =     14   k-points in BZ     NKDIM =     14   number of bands    NBANDS=    148
   number of dos      NEDOS =    301   number of ions     NIONS =     72
   non local maximal  LDIM  =      4   non local SUM 2l+1 LMDIM =      8
   total plane-waves  NPLWV = 829440
   max r-space proj   IRMAX =      1   max aug-charges    IRDMAX=  10010
   dimension x,y,z NGX =    96 NGY =   96 NGZ =   90
   dimension x,y,z NGXF=   192 NGYF=  192 NGZF=  180
   support grid    NGXF=   192 NGYF=  192 NGZF=  180
   ions per type =              18  36  18
   NGX,Y,Z   is equivalent  to a cutoff of  17.12, 17.12, 18.26 a.u.
   NGXF,Y,Z  is equivalent  to a cutoff of  34.25, 34.25, 36.51 a.u.

 SYSTEM =  unknown system                          
 POSCAR =   C  H  O                                

 Startparameter for this run:
   NWRITE =      2    write-flag & timer
   PREC   = accura    normal or accurate (medium, high low for compatibility)
   ISTART =      0    job   : 0-new  1-cont  2-samecut
   ICHARG =      2    charge: 1-file 2-atom 10-const
   ISPIN  =      1    spin polarized calculation?
   LNONCOLLINEAR =      F non collinear calculations
   LSORBIT =      F    spin-orbit coupling
   INIWAV =      1    electr: 0-lowe 1-rand  2-diag
   LASPH  =      T    aspherical Exc in radial PAW
 Electronic Relaxation 1
   ENCUT  = 1000.0 eV  73.50 Ry    8.57 a.u.  24.03 24.03 21.13*2*pi/ulx,y,z
   ENINI  = 1000.0     initial cutoff
   ENAUG  = 1000.0 eV  augmentation charge cutoff
   NELM   =     60;   NELMIN=  2; NELMDL= -5     # of ELM steps 
   EDIFF  = 0.1E-06   stopping-criterion for ELM
   LREAL  =      F    real-space projection
   NLSPLINE    = F    spline interpolate recip. space projectors
   LCOMPAT=      F    compatible to vasp.4.4
   GGA_COMPAT  = T    GGA compatible to vasp.4.4-vasp.4.6
   LMAXPAW     = -100 max onsite density
   LMAXMIX     =    2 max onsite mixed and CHGCAR
   VOSKOWN=      0    Vosko Wilk Nusair interpolation
   ROPT   =    0.00000   0.00000   0.00000
 Ionic relaxation
   EDIFFG = 0.1E-05   stopping-criterion for IOM
   NSW    =      0    number of steps for IOM
   NBLOCK =      1;   KBLOCK =      1    inner block; outer block 
   IBRION =     -1    ionic relax: 0-MD 1-quasi-New 2-CG
   NFREE  =      0    steps in history (QN), initial steepest desc. (CG)
   ISIF   =      0    stress and relaxation
   IWAVPR =     10    prediction:  0-non 1-charg 2-wave 3-comb
   ISYM   =      2    0-nonsym 1-usesym 2-fastsym
   LCORR  =      T    Harris-Foulkes like correction to forces

   POTIM  = 0.5000    time-step for ionic-motion
   TEIN   =    0.0    initial temperature
   TEBEG  =    0.0;   TEEND  =   0.0 temperature during run
   SMASS  =  -3.00    Nose mass-parameter (am)
   estimated Nose-frequenzy (Omega)   =  0.10E-29 period in steps = 0.13E+47 mass=  -0.199E-26a.u.
   SCALEE = 1.0000    scale energy and forces
   NPACO  =    256;   APACO  = 10.0  distance and # of slots for P.C.
   PSTRESS=    0.0 pullay stress

  Mass of Ions in am
   POMASS =  12.01  1.00 16.00
  Ionic Valenz
   ZVAL   =   4.00  1.00  6.00
  Atomic Wigner-Seitz radii
   RWIGS  =  -1.00 -1.00 -1.00
  virtual crystal weights 
   VCA    =   1.00  1.00  1.00
   NELECT =     216.0000    total number of electrons
   NUPDOWN=      -1.0000    fix difference up-down

 DOS related values:
   EMIN   =  10.00;   EMAX   =-10.00  energy-range for DOS
   EFERMI =   0.00;   METHOD = LEGACY      
   ISMEAR =     0;   SIGMA  =   0.01  broadening in eV -4-tet -1-fermi 0-gaus

 Electronic relaxation 2 (details)
   IALGO  =     58    algorithm
   LDIAG  =      T    sub-space diagonalisation (order eigenvalues)
   LSUBROT=      F    optimize rotation matrix (better conditioning)
   TURBO    =      0    0=normal 1=particle mesh
   IRESTART =      0    0=no restart 2=restart with 2 vectors
   NREBOOT  =      0    no. of reboots
   NMIN     =      0    reboot dimension
   EREF     =   0.00    reference energy to select bands
   IMIX   =      4    mixing-type and parameters
     AMIX     =   0.40;   BMIX     =  1.00
     AMIX_MAG =   1.60;   BMIX_MAG =  1.00
     AMIN     =   0.10
     WC   =   100.;   INIMIX=   1;  MIXPRE=   1;  MAXMIX= -45

 Intra band minimization:
   WEIMIN = 0.0000     energy-eigenvalue tresh-hold
   EBREAK =  0.17E-09  absolut break condition
   DEPER  =   0.30     relativ break condition  

   TIME   =   0.40     timestep for ELM

  volume/ion in A,a.u.               =       8.56        57.79
  Fermi-wavevector in a.u.,A,eV,Ry     =   1.154085  2.180905 18.121773  1.331913
  Thomas-Fermi vector in A             =   2.290724

 Write flags
   LWAVE        =      F    write WAVECAR
   LDOWNSAMPLE  =      F    k-point downsampling of WAVECAR
   LCHARG       =      F    write CHGCAR
   LVTOT        =      F    write LOCPOT, total local potential
   LVHAR        =      F    write LOCPOT, Hartree potential only
   LELF         =      F    write electronic localiz. function (ELF)
   LORBIT       =      0    0 simple, 1 ext, 2 COOP (PROOUT), +10 PAW based schemes


 Dipole corrections
   LMONO  =      F    monopole corrections only (constant potential shift)
   LDIPOL =      F    correct potential (dipole corrections)
   IDIPOL =      0    1-x, 2-y, 3-z, 4-all directions 
   EPSILON=  1.0000000 bulk dielectric constant

 Exchange correlation treatment:
   GGA     =    --    GGA type
   LEXCH   =     8    internal setting for exchange type
   LIBXC   =     F    Libxc                    
   VOSKOWN =     0    Vosko Wilk Nusair interpolation
   LHFCALC =     F    Hartree Fock is set to
   LHFONE  =     F    Hartree Fock one center treatment
   AEXX    =    0.0000 exact exchange contribution

 Linear response parameters
   LEPSILON=     F    determine dielectric tensor
   LRPA    =     F    only Hartree local field effects (RPA)
   LNABLA  =     F    use nabla operator in PAW spheres
   LVEL    =     F    velocity operator in full k-point grid
   CSHIFT  =0.1000    complex shift for real part using Kramers Kronig
   OMEGAMAX=  -1.0    maximum frequency
   DEG_THRESHOLD= 0.2000000E-02 threshold for treating states as degnerate
   RTIME   =   -0.100 relaxation time in fs
  (WPLASMAI=    0.000 imaginary part of plasma frequency in eV, 0.658/RTIME)
   DFIELD  = 0.0000000 0.0000000 0.0000000 field for delta impulse in time

  Optional k-point grid parameters
   LKPOINTS_OPT  =     F    use optional k-point grid
   KPOINTS_OPT_MODE=     1    mode for optional k-point grid

 Orbital magnetization related:
   ORBITALMAG=     F  switch on orbital magnetization
   LCHIMAG   =     F  perturbation theory with respect to B field
   DQ        =  0.001000  dq finite difference perturbation B field
   LLRAUG    =     F  two centre corrections for induced B field
   LBONE     =     F  B-component reconstruction in AE one-centre
   LVGVCALC  =     T  calculate vGv susceptibility
   LVGVAPPL  =     F  apply vGv susceptibility instead of pGv for G=0

 Random number generation:
   RANDOM_GENERATOR = DEFAULT
   PCG_SEED         = not used


--------------------------------------------------------------------------------------------------------


 Static calculation
 charge density and potential will be updated during run
 non-spin polarized calculation
 Conjugate gradient for all bands (Freysoldt, et al. PRB 79, 241103 (2009))
 preconditioned conjugated gradient                                        
 perform sub-space diagonalisation
    before iterative eigenvector-optimisation
 modified Broyden-mixing scheme, WC =      100.0
 initial mixing is a Kerker type mixing with AMIX =  0.4000 and BMIX =      1.0000
 Hartree-type preconditioning will be used
 using additional bands           40
 reciprocal scheme for non local part
 use partial core corrections
 no Harris-corrections to forces 
 use gradient corrections 
 use of overlap-Matrix (Vanderbilt PP)
 Gauss-broadening in eV      SIGMA  =   0.01


--------------------------------------------------------------------------------------------------------


  energy-cutoff  :     1000.00
  volume of cell :      616.54
      direct lattice vectors                 reciprocal lattice vectors
     9.320000000  0.000000000  0.000000000     0.107296137  0.061947429 -0.000000000
    -4.660000000  8.071360000  0.000000000     0.000000000  0.123894858  0.000000000
     0.000000000  0.000000000  8.196000000     0.000000000 -0.000000000  0.122010737

  length of vectors
     9.320000000  9.320002803  8.196000000     0.123894895  0.123894858  0.122010737



 k-points in units of 2pi/SCALE and weight: auto                                    
   0.00000000  0.00000000  0.00000000       0.037
   0.03576538  0.02064914  0.00000000       0.074
   0.03576538 -0.02064914  0.00000000       0.074
   0.00000000  0.04129829  0.00000000       0.074
   0.03576538  0.06194743  0.00000000       0.074
   0.00000000  0.00000000  0.04067025       0.074
   0.03576538  0.02064914  0.04067025       0.074
  -0.03576538 -0.02064914  0.04067025       0.074
   0.03576538 -0.02064914 -0.04067025       0.074
  -0.03576538  0.02064914 -0.04067025       0.074
   0.00000000  0.04129829  0.04067025       0.074
   0.00000000 -0.04129829  0.04067025       0.074
   0.03576538  0.06194743  0.04067025       0.074
  -0.03576538 -0.06194743  0.04067025       0.074

 k-points in reciprocal lattice and weights: auto                                    
   0.00000000  0.00000000  0.00000000       0.037
   0.33333333  0.00000000  0.00000000       0.074
   0.33333333 -0.33333333  0.00000000       0.074
   0.00000000  0.33333333  0.00000000       0.074
   0.33333333  0.33333333  0.00000000       0.074
   0.00000000  0.00000000  0.33333333       0.074
   0.33333333  0.00000000  0.33333333       0.074
  -0.33333333  0.00000000  0.33333333       0.074
   0.33333333 -0.33333333 -0.33333333       0.074
  -0.33333333  0.33333333 -0.33333333       0.074
   0.00000000  0.33333333  0.33333333       0.074
   0.00000000 -0.33333333  0.33333333       0.074
   0.33333333  0.33333333  0.33333333       0.074
  -0.33333333 -0.33333333  0.33333333       0.074

 position of ions in fractional coordinates (direct lattice) 
   0.13590464  0.15111700  0.98415974
   0.84887884  0.98465727  0.98416051
   0.01533727  0.86408957  0.98415694
   0.84888300  0.86409536  0.48415974
   0.01534273  0.15112116  0.48416051
   0.13591043  0.98466273  0.48415694
   0.80262555  0.48439112  0.31756489
   0.51560754  0.31810163  0.31756504
   0.68189629  0.19737423  0.31756737
   0.51560888  0.19737445  0.81756489
   0.68189837  0.48439246  0.81756504
   0.80262577  0.31810371  0.81756737
   0.46926330  0.81774254  0.65080103
   0.18225118  0.65139536  0.65080221
   0.34859869  0.53073004  0.65079673
   0.18225746  0.53073670  0.15080103
   0.34860464  0.81774882  0.15080221
   0.46926996  0.65140131  0.15079673
   0.13732955  0.15257909  0.84918893
   0.84742043  0.98462622  0.84918999
   0.01536903  0.86266144  0.84918674
   0.84742091  0.86267045  0.34918893
   0.01537378  0.15257957  0.34918999
   0.13733856  0.98463097  0.34918674
   0.80399074  0.48579221  0.18260697
   0.51420806  0.31806564  0.18260706
   0.68193257  0.19600676  0.18260951
   0.51420779  0.19600926  0.68260697
   0.68193436  0.48579194  0.68260706
   0.80399324  0.31806743  0.68260951
   0.47067093  0.81918582  0.51584449
   0.18081518  0.65137116  0.51584487
   0.34862681  0.52931886  0.51583949
   0.18081418  0.52932907  0.01584449
   0.34862884  0.81918482  0.01584487
   0.47068114  0.65137319  0.01583949
   0.23805904  0.26450895  0.03549509
   0.73548623  0.97341827  0.03549526
   0.02657702  0.76193659  0.03549195
   0.73549105  0.76194096  0.53549509
   0.02658173  0.26451377  0.53549526
   0.23806341  0.97342298  0.53549195
   0.90483944  0.59777679  0.36884431
   0.40222318  0.30693137  0.36884500
   0.69306937  0.09516090  0.36884545
   0.40222321  0.09516056  0.86884431
   0.69306863  0.59777682  0.86884500
   0.90483910  0.30693063  0.86884545
   0.57145547  0.93112162  0.70213756
   0.06887359  0.64020633  0.70213558
   0.35978704  0.42854026  0.70213049
   0.06887838  0.42854453  0.20213756
   0.35979367  0.93112641  0.20213558
   0.57145974  0.64021296  0.20213049
   0.15238886  0.01533727  0.04154812
   0.98465752  0.13691807  0.04155791
   0.86307413  0.84760570  0.04155143
   0.98466273  0.84761114  0.54154812
   0.86308193  0.01534248  0.54155791
   0.15239430  0.13692587  0.54155143
   0.81902261  0.34852911  0.37496248
   0.65147149  0.47036353  0.37496401
   0.52963666  0.18097938  0.37496305
   0.65147089  0.18097739  0.87496248
   0.52963647  0.34852851  0.87496401
   0.81902062  0.47036334  0.87496305
   0.48568882  0.68190235  0.70815314
   0.31809206  0.80365847  0.70816544
   0.19633151  0.51430363  0.70815569
   0.31809765  0.51431118  0.20815314
   0.19634153  0.68190794  0.20816544
   0.48569637  0.80366849  0.20815569

 position of ions in cartesian coordinates  (Angst):
   0.56242606  1.21971970  8.06617326
   3.32304792  7.94752329  8.06617957
  -3.88371403  6.97437796  8.06615026
   3.88490521  6.97442470  3.96817326
  -0.56123035  1.21975328  3.96817957
  -3.32184309  7.94756738  3.96815026
   5.22320752  3.90969515  2.60276186
   3.32310867  2.56751274  2.60276308
   5.43550948  1.59307845  2.60278213
   3.88570980  1.59308021  6.70076186
   4.09802396  3.90970595  6.70076308
   5.99810888  2.56752960  6.70078213
   0.56285368  6.60029444  5.33396527
  -1.33692143  5.25764647  5.33397494
   0.77573782  4.28371321  5.33393003
  -0.77459352  4.28376700  1.23596527
  -0.56171430  6.60034515  1.23597494
   1.33806593  5.25769447  1.23593003
   0.56889287  1.23152076  6.95995251
   3.30960026  7.94727271  6.95996112
  -3.87676292  6.96285105  6.95993453
   3.87791860  6.96292374  2.86195251
  -0.56773717  1.23152460  2.86196112
  -3.30838493  7.94731100  2.86193453
   5.22940201  3.92100379  1.49664673
   3.31023327  2.56722229  1.49664747
   5.44222006  1.58204116  1.49666753
   3.87901348  1.58206130  5.59464673
   4.09183781  3.92100160  5.59464747
   6.01102275  2.56723670  5.59466753
   0.56924717  6.61194364  4.22786142
  -1.35019210  5.25745110  4.22786453
   0.78257594  4.27232307  4.22782043
  -0.78148528  4.27240547  0.12986142
  -0.56818043  6.61193558  0.12986453
   1.35134914  5.25746755  0.12982043
   0.98609856  2.13494696  0.29091773
   2.31860250  7.85680929  0.29091918
  -3.30292666  6.14986448  0.29089202
   3.30413172  6.14989978  4.38891773
  -0.98489246  2.13498589  4.38891918
  -2.31740006  7.85684731  4.38889202
   5.64746374  4.82487170  3.02304796
   2.31841988  2.47735361  3.02305364
   6.01595670  0.76807791  3.02305733
   3.30527208  0.76807513  7.12104796
   3.67375964  4.82487187  7.12105364
   7.00280363  2.47734763  7.12105733
   0.98693826  7.51541780  5.75471944
  -2.34145965  5.16733580  5.75470317
   1.35621756  3.45890274  5.75466147
  -1.35507099  3.45893715  1.65671944
  -0.98577210  7.51545645  1.65670317
   2.34261234  5.16738930  1.65666147
   1.34879253  0.12379262  0.34052837
   8.53896985  1.10511505  0.34060865
   4.09400830  6.84133073  0.34055552
   5.22718875  6.84137463  4.43852837
   7.97242760  0.12383470  4.43860865
   0.78224032  1.10517803  4.43855552
   6.00914509  2.81310390  3.07319249
   3.87982019  3.79647340  3.07320501
   4.09284977  1.46074976  3.07319719
   5.22835408  1.46073367  7.17119249
   3.31206901  2.81309911  7.17120501
   5.44137899  3.79647183  7.17119719
   1.34895489  5.50387932  5.80402312
  -0.78043047  6.48661686  5.80412394
  -0.56684522  4.15112973  5.80404403
   0.56798005  4.15119067  1.70602312
  -1.34778797  5.50392446  1.70612394
   0.78159503  6.48669769  1.70604403



--------------------------------------------------------------------------------------------------------


 k-point   1 :   0.0000 0.0000 0.0000  plane waves:   44179
 k-point   2 :   0.3333 0.0000 0.0000  plane waves:   44244
 k-point   3 :   0.3333-0.3333 0.0000  plane waves:   44244
 k-point   4 :   0.0000 0.3333 0.0000  plane waves:   44244
 k-point   5 :   0.3333 0.3333 0.0000  plane waves:   44316
 k-point   6 :   0.0000 0.0000 0.3333  plane waves:   44220
 k-point   7 :   0.3333 0.0000 0.3333  plane waves:   44267
 k-point   8 :  -0.3333 0.0000 0.3333  plane waves:   44267
 k-point   9 :   0.3333-0.3333-0.3333  plane waves:   44267
 k-point  10 :  -0.3333 0.3333-0.3333  plane waves:   44267
 k-point  11 :   0.0000 0.3333 0.3333  plane waves:   44267
 k-point  12 :   0.0000-0.3333 0.3333  plane waves:   44267
 k-point  13 :   0.3333 0.3333 0.3333  plane waves:   44268
 k-point  14 :  -0.3333-0.3333 0.3333  plane waves:   44268

 maximum and minimum number of plane-waves per node :      1422     1330

 maximum number of plane-waves:     44316
 maximum index in each direction: 
   IXMAX=   24   IYMAX=   24   IZMAX=   21
   IXMIN=  -24   IYMIN=  -24   IZMIN=  -21


 parallel 3D FFT for wavefunctions:
    minimum data exchange during FFTs selected (reduces bandwidth)
 parallel 3D FFT for charge:
    minimum data exchange during FFTs selected (reduces bandwidth)


 total amount of memory used by VASP MPI-rank0    80434. kBytes
=======================================================================

   base      :      30000. kBytes
   nonl-proj :       5345. kBytes
   fftplans  :       2986. kBytes
   grid      :       6889. kBytes
   one-center:          9. kBytes
   wavefun   :      35205. kBytes

     INWAV:  cpu time      0.0017: real time      0.0018
 Broyden mixing: mesh for mixing (old mesh)
   NGX = 49   NGY = 49   NGZ = 43
  (NGX  =192   NGY  =192   NGZ  =180)
  gives a total of 103243 points

 initial charge density was supplied:
 charge density of overlapping atoms calculated
 number of electron     216.0000000 magnetization 
 keeping initial charge density in first step


--------------------------------------------------------------------------------------------------------


 Maximum index for augmentation-charges          488 (set IRDMAX)


--------------------------------------------------------------------------------------------------------


 First call to EWALD:  gamma=   0.208
 Maximum number of real-space cells 3x 3x 3
 Maximum number of reciprocal cells 3x 3x 3

    FEWALD:  cpu time      0.0056: real time      0.0056


--------------------------------------- Ionic step        1  -------------------------------------------




--------------------------------------- Iteration      1(   1)  ---------------------------------------


    POTLOK:  cpu time      0.2026: real time      0.2042
    SETDIJ:  cpu time      0.3069: real time      0.3073
    TRIAL :  cpu time      7.7683: real time      7.7750
    CORREC:  cpu time      0.0032: real time      0.0032
    --------------------------------------------
      LOOP:  cpu time      8.3034: real time      8.3119

 eigenvalue-minimisations  :  4144
 total energy-change (2. order) : 0.1875567E+04  (-0.1676252E+05)
 number of electron     216.0000000 magnetization 
 augmentation part      216.0000000 magnetization 

 Free energy of the ion-electron system (eV)
  ---------------------------------------------------
  alpha Z        PSCENC =       215.06248900
  Ewald energy   TEWEN  =     -5045.80573557
  -Hartree energ DENC   =     -5011.32673686
  -exchange      EXHF   =         0.00000000
  -V(xc)+E(xc)   XCENC  =       871.45529687
  PAW double counting   =      8151.76515590    -8169.23259268
  entropy T*S    EENTRO =        -0.00115057
  eigenvalues    EBANDS =       -17.17313399
  atomic energy  EATOM  =     10880.82366647
  ---------------------------------------------------
  free energy    TOTEN  =      1875.56725857 eV

  energy without entropy =     1875.56840914  energy(sigma->0) =     1875.56783386


--------------------------------------------------------------------------------------------------------




--------------------------------------- Iteration      1(   2)  ---------------------------------------


    TRIAL :  cpu time      9.0664: real time      9.0717
    CORREC:  cpu time      0.0003: real time      0.0003
    --------------------------------------------
      LOOP:  cpu time      9.0818: real time      9.1029

 eigenvalue-minimisations  :  5368
 total energy-change (2. order) :-0.2065845E+04  (-0.1951551E+04)
 number of electron     216.0000000 magnetization 
 augmentation part      216.0000000 magnetization 

 Free energy of the ion-electron system (eV)
  ---------------------------------------------------
  alpha Z        PSCENC =       215.06248900
  Ewald energy   TEWEN  =     -5045.80573557
  -Hartree energ DENC   =     -5011.32673686
  -exchange      EXHF   =         0.00000000
  -V(xc)+E(xc)   XCENC  =       871.45529687
  PAW double counting   =      8151.76515590    -8169.23259268
  entropy T*S    EENTRO =        -0.00000000
  eigenvalues    EBANDS =     -2083.01901541
  atomic energy  EATOM  =     10880.82366647
  ---------------------------------------------------
  free energy    TOTEN  =      -190.27747228 eV

  energy without entropy =     -190.27747228  energy(sigma->0) =     -190.27747228


--------------------------------------------------------------------------------------------------------




--------------------------------------- Iteration      1(   3)  ---------------------------------------


    TRIAL :  cpu time      8.6125: real time      8.6178
    CORREC:  cpu time      0.0004: real time      0.0004
    --------------------------------------------
      LOOP:  cpu time      8.6264: real time      8.6495

 eigenvalue-minimisations  :  4992
 total energy-change (2. order) :-0.3479342E+03  (-0.3438577E+03)
 number of electron     216.0000000 magnetization 
 augmentation part      216.0000000 magnetization 

 Free energy of the ion-electron system (eV)
  ---------------------------------------------------
  alpha Z        PSCENC =       215.06248900
  Ewald energy   TEWEN  =     -5045.80573557
  -Hartree energ DENC   =     -5011.32673686
  -exchange      EXHF   =         0.00000000
  -V(xc)+E(xc)   XCENC  =       871.45529687
  PAW double counting   =      8151.76515590    -8169.23259268
  entropy T*S    EENTRO =        -0.00000000
  eigenvalues    EBANDS =     -2430.95324636
  atomic energy  EATOM  =     10880.82366647
  ---------------------------------------------------
  free energy    TOTEN  =      -538.21170324 eV

  energy without entropy =     -538.21170324  energy(sigma->0) =     -538.21170324


--------------------------------------------------------------------------------------------------------




--------------------------------------- Iteration      1(   4)  ---------------------------------------


    TRIAL :  cpu time      9.4056: real time      9.4124
    CORREC:  cpu time      0.0003: real time      0.0003
    --------------------------------------------
      LOOP:  cpu time      9.4361: real time      9.4432

 eigenvalue-minimisations  :  5648
 total energy-change (2. order) :-0.1469206E+02  (-0.1462611E+02)
 number of electron     216.0000000 magnetization 
 augmentation part      216.0000000 magnetization 

 Free energy of the ion-electron system (eV)
  ---------------------------------------------------
  alpha Z        PSCENC =       215.06248900
  Ewald energy   TEWEN  =     -5045.80573557
  -Hartree energ DENC   =     -5011.32673686
  -exchange      EXHF   =         0.00000000
  -V(xc)+E(xc)   XCENC  =       871.45529687
  PAW double counting   =      8151.76515590    -8169.23259268
  entropy T*S    EENTRO =        -0.00000000
  eigenvalues    EBANDS =     -2445.64530309
  atomic energy  EATOM  =     10880.82366647
  ---------------------------------------------------
  free energy    TOTEN  =      -552.90375996 eV

  energy without entropy =     -552.90375996  energy(sigma->0) =     -552.90375996


--------------------------------------------------------------------------------------------------------




--------------------------------------- Iteration      1(   5)  ---------------------------------------


    TRIAL :  cpu time      9.6906: real time      9.6975
    CORREC:  cpu time      0.0004: real time      0.0004
    CHARGE:  cpu time      0.5237: real time      0.5256
    --------------------------------------------
      LOOP:  cpu time     10.2266: real time     10.2533

 eigenvalue-minimisations  :  5920
 total energy-change (2. order) :-0.4816940E+00  (-0.4812998E+00)
 number of electron     215.9999999 magnetization 
 augmentation part        0.9004890 magnetization 

 Free energy of the ion-electron system (eV)
  ---------------------------------------------------
  alpha Z        PSCENC =       215.06248900
  Ewald energy   TEWEN  =     -5045.80573557
  -Hartree energ DENC   =     -5011.32673686
  -exchange      EXHF   =         0.00000000
  -V(xc)+E(xc)   XCENC  =       871.45529687
  PAW double counting   =      8151.76515590    -8169.23259268
  entropy T*S    EENTRO =        -0.00000000
  eigenvalues    EBANDS =     -2446.12699707
  atomic energy  EATOM  =     10880.82366647
  ---------------------------------------------------
  free energy    TOTEN  =      -553.38545394 eV

  energy without entropy =     -553.38545394  energy(sigma->0) =     -553.38545394


--------------------------------------------------------------------------------------------------------




--------------------------------------- Iteration      1(   6)  ---------------------------------------


    POTLOK:  cpu time      0.1859: real time      0.1859
    SETDIJ:  cpu time      0.3707: real time      0.3712
    TRIAL :  cpu time      6.1606: real time      6.1652
    CORREC:  cpu time      2.3561: real time      2.3577
    CHARGE:  cpu time      0.4181: real time      0.4186
    --------------------------------------------
      LOOP:  cpu time      9.5038: real time      9.5282

 eigenvalue-minimisations  :     0
 total energy-change (2. order) : 0.1012294E+03  (-0.1098087E+02)
 number of electron     215.9999999 magnetization 
 augmentation part        0.7481519 magnetization 

 Free energy of the ion-electron system (eV)
  ---------------------------------------------------
  alpha Z        PSCENC =       215.06248900
  Ewald energy   TEWEN  =     -5045.80573557
  -Hartree energ DENC   =     -5861.47788350
  -exchange      EXHF   =         0.00000000
  -V(xc)+E(xc)   XCENC  =       963.18107323
  PAW double counting   =    109642.64921821  -109668.28006036
  entropy T*S    EENTRO =        -0.00000000
  eigenvalues    EBANDS =     -1578.30880450
  atomic energy  EATOM  =     10880.82366647
  ---------------------------------------------------
  free energy    TOTEN  =      -452.15603702 eV

  energy without entropy =     -452.15603702  energy(sigma->0) =     -452.15603702


--------------------------------------------------------------------------------------------------------




--------------------------------------- Iteration      1(   7)  ---------------------------------------


    POTLOK:  cpu time      0.1827: real time      0.1827
    SETDIJ:  cpu time      0.3049: real time      0.3049
    TRIAL :  cpu time      6.0412: real time      6.0451
    CORREC:  cpu time      2.3438: real time      2.3450
    CHARGE:  cpu time      0.4175: real time      0.4179
    --------------------------------------------
      LOOP:  cpu time      9.3044: real time      9.3263

 eigenvalue-minimisations  :     0
 total energy-change (2. order) :-0.1099662E+02  (-0.1743631E+01)
 number of electron     215.9999999 magnetization 
 augmentation part        0.7085052 magnetization 

 Free energy of the ion-electron system (eV)
  ---------------------------------------------------
  alpha Z        PSCENC =       215.06248900
  Ewald energy   TEWEN  =     -5045.80573557
  -Hartree energ DENC   =     -5519.66040990
  -exchange      EXHF   =         0.00000000
  -V(xc)+E(xc)   XCENC  =       938.52710045
  PAW double counting   =    115553.94411002  -115575.11350140
  entropy T*S    EENTRO =        -0.00000000
  eigenvalues    EBANDS =     -1910.93037771
  atomic energy  EATOM  =     10880.82366647
  ---------------------------------------------------
  free energy    TOTEN  =      -463.15265864 eV

  energy without entropy =     -463.15265864  energy(sigma->0) =     -463.15265864


--------------------------------------------------------------------------------------------------------




--------------------------------------- Iteration      1(   8)  ---------------------------------------


    POTLOK:  cpu time      0.1824: real time      0.1824
    SETDIJ:  cpu time      0.3042: real time      0.3042
    TRIAL :  cpu time      6.0666: real time      6.0701
    CORREC:  cpu time      2.3783: real time      2.3799
    CHARGE:  cpu time      0.5083: real time      0.5083
    --------------------------------------------
      LOOP:  cpu time      9.4557: real time      9.4749

 eigenvalue-minimisations  :     0
 total energy-change (2. order) :-0.1745475E+01  (-0.5669041E+00)
 number of electron     215.9999999 magnetization 
 augmentation part        0.7604841 magnetization 

 Free energy of the ion-electron system (eV)
  ---------------------------------------------------
  alpha Z        PSCENC =       215.06248900
  Ewald energy   TEWEN  =     -5045.80573557
  -Hartree energ DENC   =     -5505.28845660
  -exchange      EXHF   =         0.00000000
  -V(xc)+E(xc)   XCENC  =       936.68035858
  PAW double counting   =    118957.95456665  -118978.68201042
  entropy T*S    EENTRO =        -0.00000000
  eigenvalues    EBANDS =     -1925.64301200
  atomic energy  EATOM  =     10880.82366647
  ---------------------------------------------------
  free energy    TOTEN  =      -464.89813389 eV

  energy without entropy =     -464.89813389  energy(sigma->0) =     -464.89813389


--------------------------------------------------------------------------------------------------------




--------------------------------------- Iteration      1(   9)  ---------------------------------------


    POTLOK:  cpu time      0.1943: real time      0.1948
    SETDIJ:  cpu time      0.2911: real time      0.2911
    TRIAL :  cpu time      6.0306: real time      6.0342
    CORREC:  cpu time      2.3448: real time      2.3458
    CHARGE:  cpu time      0.4173: real time      0.4178
    --------------------------------------------
      LOOP:  cpu time      9.2910: real time      9.3142

 eigenvalue-minimisations  :     0
 total energy-change (2. order) :-0.5670464E+00  (-0.1780874E+00)
 number of electron     215.9999999 magnetization 
 augmentation part        0.7738907 magnetization 

 Free energy of the ion-electron system (eV)
  ---------------------------------------------------
  alpha Z        PSCENC =       215.06248900
  Ewald energy   TEWEN  =     -5045.80573557
  -Hartree energ DENC   =     -5505.53907355
  -exchange      EXHF   =         0.00000000
  -V(xc)+E(xc)   XCENC  =       936.52438746
  PAW double counting   =    122965.84402530  -122986.68914479
  entropy T*S    EENTRO =        -0.00000000
  eigenvalues    EBANDS =     -1925.68579466
  atomic energy  EATOM  =     10880.82366647
  ---------------------------------------------------
  free energy    TOTEN  =      -465.46518034 eV

  energy without entropy =     -465.46518034  energy(sigma->0) =     -465.46518034


--------------------------------------------------------------------------------------------------------




--------------------------------------- Iteration      1(  10)  ---------------------------------------


    POTLOK:  cpu time      0.1816: real time      0.1816
    SETDIJ:  cpu time      0.3046: real time      0.3046
    TRIAL :  cpu time      6.0633: real time      6.0672
    CORREC:  cpu time      2.3407: real time      2.3421
    CHARGE:  cpu time      0.4178: real time      0.4179
    --------------------------------------------
      LOOP:  cpu time      9.3211: real time      9.3437

 eigenvalue-minimisations  :     0
 total energy-change (2. order) :-0.1779885E+00  (-0.5236214E-01)
 number of electron     215.9999999 magnetization 
 augmentation part        0.7738857 magnetization 

 Free energy of the ion-electron system (eV)
  ---------------------------------------------------
  alpha Z        PSCENC =       215.06248900
  Ewald energy   TEWEN  =     -5045.80573557
  -Hartree energ DENC   =     -5491.47092687
  -exchange      EXHF   =         0.00000000
  -V(xc)+E(xc)   XCENC  =       935.90120963
  PAW double counting   =    123081.63306359  -123102.48886035
  entropy T*S    EENTRO =        -0.00000000
  eigenvalues    EBANDS =     -1939.29807471
  atomic energy  EATOM  =     10880.82366647
  ---------------------------------------------------
  free energy    TOTEN  =      -465.64316881 eV

  energy without entropy =     -465.64316881  energy(sigma->0) =     -465.64316881


--------------------------------------------------------------------------------------------------------




--------------------------------------- Iteration      1(  11)  ---------------------------------------


    POTLOK:  cpu time      0.1826: real time      0.1826
    SETDIJ:  cpu time      0.3036: real time      0.3041
    TRIAL :  cpu time      6.0462: real time      6.0497
    CORREC:  cpu time      2.3305: real time      2.3320
    CHARGE:  cpu time      0.4462: real time      0.4462
    --------------------------------------------
      LOOP:  cpu time      9.3223: real time      9.3446

 eigenvalue-minimisations  :     0
 total energy-change (2. order) :-0.5230407E-01  (-0.1313617E-01)
 number of electron     215.9999999 magnetization 
 augmentation part        0.7723243 magnetization 

 Free energy of the ion-electron system (eV)
  ---------------------------------------------------
  alpha Z        PSCENC =       215.06248900
  Ewald energy   TEWEN  =     -5045.80573557
  -Hartree energ DENC   =     -5489.41304960
  -exchange      EXHF   =         0.00000000
  -V(xc)+E(xc)   XCENC  =       935.83303348
  PAW double counting   =    122089.50075633  -122110.41079022
  entropy T*S    EENTRO =        -0.00000000
  eigenvalues    EBANDS =     -1941.28584277
  atomic energy  EATOM  =     10880.82366647
  ---------------------------------------------------
  free energy    TOTEN  =      -465.69547288 eV

  energy without entropy =     -465.69547288  energy(sigma->0) =     -465.69547288


--------------------------------------------------------------------------------------------------------




--------------------------------------- Iteration      1(  12)  ---------------------------------------


    POTLOK:  cpu time      0.1806: real time      0.1811
    SETDIJ:  cpu time      0.3045: real time      0.3046
    TRIAL :  cpu time      6.0617: real time      6.0657
    CORREC:  cpu time      2.3316: real time      2.3326
    CHARGE:  cpu time      0.4177: real time      0.4182
    --------------------------------------------
      LOOP:  cpu time      9.3078: real time      9.3325

 eigenvalue-minimisations  :     0
 total energy-change (2. order) :-0.1310332E-01  (-0.3011950E-02)
 number of electron     215.9999999 magnetization 
 augmentation part        0.7707757 magnetization 

 Free energy of the ion-electron system (eV)
  ---------------------------------------------------
  alpha Z        PSCENC =       215.06248900
  Ewald energy   TEWEN  =     -5045.80573557
  -Hartree energ DENC   =     -5488.02754904
  -exchange      EXHF   =         0.00000000
  -V(xc)+E(xc)   XCENC  =       935.67961105
  PAW double counting   =    121902.74542393  -121923.64082376
  entropy T*S    EENTRO =        -0.00000000
  eigenvalues    EBANDS =     -1942.54565829
  atomic energy  EATOM  =     10880.82366647
  ---------------------------------------------------
  free energy    TOTEN  =      -465.70857621 eV

  energy without entropy =     -465.70857621  energy(sigma->0) =     -465.70857621


--------------------------------------------------------------------------------------------------------




--------------------------------------- Iteration      1(  13)  ---------------------------------------


    POTLOK:  cpu time      0.1814: real time      0.1815
    SETDIJ:  cpu time      0.3040: real time      0.3041
    TRIAL :  cpu time      6.0327: real time      6.0368
    CORREC:  cpu time      2.3396: real time      2.3410
    CHARGE:  cpu time      0.4789: real time      0.4790
    --------------------------------------------
      LOOP:  cpu time      9.3510: real time      9.3723

 eigenvalue-minimisations  :     0
 total energy-change (2. order) :-0.2993878E-02  (-0.7568292E-03)
 number of electron     215.9999999 magnetization 
 augmentation part        0.7709202 magnetization 

 Free energy of the ion-electron system (eV)
  ---------------------------------------------------
  alpha Z        PSCENC =       215.06248900
  Ewald energy   TEWEN  =     -5045.80573557
  -Hartree energ DENC   =     -5487.43313730
  -exchange      EXHF   =         0.00000000
  -V(xc)+E(xc)   XCENC  =       935.62834500
  PAW double counting   =    121637.41153095  -121658.29619241
  entropy T*S    EENTRO =        -0.00000000
  eigenvalues    EBANDS =     -1943.10253623
  atomic energy  EATOM  =     10880.82366647
  ---------------------------------------------------
  free energy    TOTEN  =      -465.71157008 eV

  energy without entropy =     -465.71157008  energy(sigma->0) =     -465.71157008


--------------------------------------------------------------------------------------------------------




--------------------------------------- Iteration      1(  14)  ---------------------------------------


    POTLOK:  cpu time      0.1820: real time      0.1820
    SETDIJ:  cpu time      0.3032: real time      0.3036
    TRIAL :  cpu time      6.0235: real time      6.0269
    CORREC:  cpu time      2.3306: real time      2.3317
    CHARGE:  cpu time      0.4181: real time      0.4182
    --------------------------------------------
      LOOP:  cpu time      9.2701: real time      9.2924

 eigenvalue-minimisations  :     0
 total energy-change (2. order) :-0.7497207E-03  (-0.2248128E-03)
 number of electron     215.9999999 magnetization 
 augmentation part        0.7709408 magnetization 

 Free energy of the ion-electron system (eV)
  ---------------------------------------------------
  alpha Z        PSCENC =       215.06248900
  Ewald energy   TEWEN  =     -5045.80573557
  -Hartree energ DENC   =     -5487.76087664
  -exchange      EXHF   =         0.00000000
  -V(xc)+E(xc)   XCENC  =       935.64479075
  PAW double counting   =    121355.44665569  -121376.33660884
  entropy T*S    EENTRO =        -0.00000000
  eigenvalues    EBANDS =     -1942.78670067
  atomic energy  EATOM  =     10880.82366647
  ---------------------------------------------------
  free energy    TOTEN  =      -465.71231980 eV

  energy without entropy =     -465.71231980  energy(sigma->0) =     -465.71231980


--------------------------------------------------------------------------------------------------------




--------------------------------------- Iteration      1(  15)  ---------------------------------------


    POTLOK:  cpu time      0.1805: real time      0.1809
    SETDIJ:  cpu time      0.3055: real time      0.3055
    TRIAL :  cpu time      6.0710: real time      6.0751
    CORREC:  cpu time      2.3512: real time      2.3523
    CHARGE:  cpu time      0.4164: real time      0.4168
    --------------------------------------------
      LOOP:  cpu time      9.3361: real time      9.3612

 eigenvalue-minimisations  :     0
 total energy-change (2. order) :-0.2259044E-03  (-0.7203023E-04)
 number of electron     215.9999999 magnetization 
 augmentation part        0.7710485 magnetization 

 Free energy of the ion-electron system (eV)
  ---------------------------------------------------
  alpha Z        PSCENC =       215.06248900
  Ewald energy   TEWEN  =     -5045.80573557
  -Hartree energ DENC   =     -5487.80524799
  -exchange      EXHF   =         0.00000000
  -V(xc)+E(xc)   XCENC  =       935.64077877
  PAW double counting   =    121204.04656343  -121224.93614380
  entropy T*S    EENTRO =        -0.00000000
  eigenvalues    EBANDS =     -1942.73891602
  atomic energy  EATOM  =     10880.82366647
  ---------------------------------------------------
  free energy    TOTEN  =      -465.71254571 eV

  energy without entropy =     -465.71254571  energy(sigma->0) =     -465.71254571


--------------------------------------------------------------------------------------------------------




--------------------------------------- Iteration      1(  16)  ---------------------------------------


    POTLOK:  cpu time      0.1819: real time      0.1819
    SETDIJ:  cpu time      0.3039: real time      0.3039
    TRIAL :  cpu time      6.0164: real time      6.0204
    CORREC:  cpu time      2.3330: real time      2.3348
    CHARGE:  cpu time      0.4176: real time      0.4177
    --------------------------------------------
      LOOP:  cpu time      9.2661: real time      9.2894

 eigenvalue-minimisations  :     0
 total energy-change (2. order) :-0.7402395E-04  (-0.2220721E-04)
 number of electron     215.9999999 magnetization 
 augmentation part        0.7710064 magnetization 

 Free energy of the ion-electron system (eV)
  ---------------------------------------------------
  alpha Z        PSCENC =       215.06248900
  Ewald energy   TEWEN  =     -5045.80573557
  -Hartree energ DENC   =     -5487.94732495
  -exchange      EXHF   =         0.00000000
  -V(xc)+E(xc)   XCENC  =       935.65010309
  PAW double counting   =    121164.48322001  -121185.37368559
  entropy T*S    EENTRO =        -0.00000000
  eigenvalues    EBANDS =     -1942.60535220
  atomic energy  EATOM  =     10880.82366647
  ---------------------------------------------------
  free energy    TOTEN  =      -465.71261973 eV

  energy without entropy =     -465.71261973  energy(sigma->0) =     -465.71261973


--------------------------------------------------------------------------------------------------------




--------------------------------------- Iteration      1(  17)  ---------------------------------------


    POTLOK:  cpu time      0.1820: real time      0.1820
    SETDIJ:  cpu time      0.3026: real time      0.3030
    TRIAL :  cpu time      6.0297: real time      6.0334
    CORREC:  cpu time      2.4181: real time      2.4192
    CHARGE:  cpu time      0.4166: real time      0.4166
    --------------------------------------------
      LOOP:  cpu time      9.3614: real time      9.3847

 eigenvalue-minimisations  :     0
 total energy-change (2. order) :-0.2323797E-04  (-0.7445190E-05)
 number of electron     215.9999999 magnetization 
 augmentation part        0.7710007 magnetization 

 Free energy of the ion-electron system (eV)
  ---------------------------------------------------
  alpha Z        PSCENC =       215.06248900
  Ewald energy   TEWEN  =     -5045.80573557
  -Hartree energ DENC   =     -5487.94435814
  -exchange      EXHF   =         0.00000000
  -V(xc)+E(xc)   XCENC  =       935.65073203
  PAW double counting   =    121185.13264580  -121206.02215337
  entropy T*S    EENTRO =        -0.00000000
  eigenvalues    EBANDS =     -1942.60992920
  atomic energy  EATOM  =     10880.82366647
  ---------------------------------------------------
  free energy    TOTEN  =      -465.71264297 eV

  energy without entropy =     -465.71264297  energy(sigma->0) =     -465.71264297


--------------------------------------------------------------------------------------------------------




--------------------------------------- Iteration      1(  18)  ---------------------------------------


    POTLOK:  cpu time      0.1817: real time      0.1821
    SETDIJ:  cpu time      0.3035: real time      0.3035
    TRIAL :  cpu time      6.0554: real time      6.0590
    CORREC:  cpu time      2.3330: real time      2.3341
    CHARGE:  cpu time      0.4172: real time      0.4178
    --------------------------------------------
      LOOP:  cpu time      9.3209: real time      9.3268

 eigenvalue-minimisations  :     0
 total energy-change (2. order) :-0.7693088E-05  (-0.2666938E-05)
 number of electron     215.9999999 magnetization 
 augmentation part        0.7710131 magnetization 

 Free energy of the ion-electron system (eV)
  ---------------------------------------------------
  alpha Z        PSCENC =       215.06248900
  Ewald energy   TEWEN  =     -5045.80573557
  -Hartree energ DENC   =     -5487.96586542
  -exchange      EXHF   =         0.00000000
  -V(xc)+E(xc)   XCENC  =       935.65222386
  PAW double counting   =    121210.96139006  -121231.85074916
  entropy T*S    EENTRO =        -0.00000000
  eigenvalues    EBANDS =     -1942.59006990
  atomic energy  EATOM  =     10880.82366647
  ---------------------------------------------------
  free energy    TOTEN  =      -465.71265066 eV

  energy without entropy =     -465.71265066  energy(sigma->0) =     -465.71265066


--------------------------------------------------------------------------------------------------------




--------------------------------------- Iteration      1(  19)  ---------------------------------------


    POTLOK:  cpu time      0.1813: real time      0.1813
    SETDIJ:  cpu time      0.3041: real time      0.3041
    TRIAL :  cpu time      6.0584: real time      6.0619
    CORREC:  cpu time      2.3498: real time      2.3516
    CHARGE:  cpu time      0.4175: real time      0.4176
    --------------------------------------------
      LOOP:  cpu time      9.3240: real time      9.3460

 eigenvalue-minimisations  :     0
 total energy-change (2. order) :-0.2652319E-05  (-0.1272259E-05)
 number of electron     215.9999999 magnetization 
 augmentation part        0.7710331 magnetization 

 Free energy of the ion-electron system (eV)
  ---------------------------------------------------
  alpha Z        PSCENC =       215.06248900
  Ewald energy   TEWEN  =     -5045.80573557
  -Hartree energ DENC   =     -5487.94800727
  -exchange      EXHF   =         0.00000000
  -V(xc)+E(xc)   XCENC  =       935.65155148
  PAW double counting   =    121226.51151475  -121247.40088166
  entropy T*S    EENTRO =        -0.00000000
  eigenvalues    EBANDS =     -1942.60725052
  atomic energy  EATOM  =     10880.82366647
  ---------------------------------------------------
  free energy    TOTEN  =      -465.71265332 eV

  energy without entropy =     -465.71265332  energy(sigma->0) =     -465.71265332


--------------------------------------------------------------------------------------------------------




--------------------------------------- Iteration      1(  20)  ---------------------------------------


    POTLOK:  cpu time      0.1816: real time      0.1816
    SETDIJ:  cpu time      0.3047: real time      0.3051
    TRIAL :  cpu time      6.1056: real time      6.1091
    CORREC:  cpu time      2.3418: real time      2.3428
    CHARGE:  cpu time      0.4183: real time      0.4183
    --------------------------------------------
      LOOP:  cpu time      9.3636: real time      9.3866

 eigenvalue-minimisations  :     0
 total energy-change (2. order) :-0.6477494E-06  (-0.4962856E-06)
 number of electron     215.9999999 magnetization 
 augmentation part        0.7710147 magnetization 

 Free energy of the ion-electron system (eV)
  ---------------------------------------------------
  alpha Z        PSCENC =       215.06248900
  Ewald energy   TEWEN  =     -5045.80573557
  -Hartree energ DENC   =     -5487.94750401
  -exchange      EXHF   =         0.00000000
  -V(xc)+E(xc)   XCENC  =       935.65178894
  PAW double counting   =    121235.51248577  -121256.40202949
  entropy T*S    EENTRO =        -0.00000000
  eigenvalues    EBANDS =     -1942.60781507
  atomic energy  EATOM  =     10880.82366647
  ---------------------------------------------------
  free energy    TOTEN  =      -465.71265396 eV

  energy without entropy =     -465.71265396  energy(sigma->0) =     -465.71265396


--------------------------------------------------------------------------------------------------------




--------------------------------------- Iteration      1(  21)  ---------------------------------------


    POTLOK:  cpu time      0.1821: real time      0.1821
    SETDIJ:  cpu time      0.3047: real time      0.3048
    TRIAL :  cpu time      6.0842: real time      6.0878
    CORREC:  cpu time      2.3394: real time      2.3407
    CHARGE:  cpu time      0.4253: real time      0.4258
    --------------------------------------------
      LOOP:  cpu time      9.3653: real time      9.3713

 eigenvalue-minimisations  :     0
 total energy-change (2. order) :-0.4888425E-06  (-0.7690904E-07)
 number of electron     215.9999999 magnetization 
 augmentation part        0.7710155 magnetization 

 Free energy of the ion-electron system (eV)
  ---------------------------------------------------
  alpha Z        PSCENC =       215.06248900
  Ewald energy   TEWEN  =     -5045.80573557
  -Hartree energ DENC   =     -5487.93873128
  -exchange      EXHF   =         0.00000000
  -V(xc)+E(xc)   XCENC  =       935.65115373
  PAW double counting   =    121234.66604370  -121255.55541751
  entropy T*S    EENTRO =        -0.00000000
  eigenvalues    EBANDS =     -1942.61612298
  atomic energy  EATOM  =     10880.82366647
  ---------------------------------------------------
  free energy    TOTEN  =      -465.71265445 eV

  energy without entropy =     -465.71265445  energy(sigma->0) =     -465.71265445


--------------------------------------------------------------------------------------------------------




--------------------------------------- Iteration      1(  22)  ---------------------------------------


    POTLOK:  cpu time      0.1819: real time      0.1820
    SETDIJ:  cpu time      0.3049: real time      0.3049
    TRIAL :  cpu time      6.0246: real time      6.0283
    CORREC:  cpu time      2.3509: real time      2.3523
    EDDIAG:  cpu time      1.4056: real time      1.4075
    CHARGE:  cpu time      0.4165: real time      0.4167
    --------------------------------------------
      LOOP:  cpu time     10.6999: real time     10.7207

 eigenvalue-minimisations  :     0
 total energy-change (2. order) :-0.7798371E-07  (-0.1498646E-07)
 number of electron     215.9999999 magnetization 
 augmentation part        0.7710140 magnetization 

 Free energy of the ion-electron system (eV)
  ---------------------------------------------------
  alpha Z        PSCENC =       215.06248900
  Ewald energy   TEWEN  =     -5045.80573557
  -Hartree energ DENC   =     -5487.94477740
  -exchange      EXHF   =         0.00000000
  -V(xc)+E(xc)   XCENC  =       935.65148611
  PAW double counting   =    121233.06362135  -121253.95304219
  entropy T*S    EENTRO =        -0.00000000
  eigenvalues    EBANDS =     -1942.61036230
  atomic energy  EATOM  =     10880.82366647
  ---------------------------------------------------
  free energy    TOTEN  =      -465.71265453 eV

  energy without entropy =     -465.71265453  energy(sigma->0) =     -465.71265453


--------------------------------------------------------------------------------------------------------


  average scaling for gradient   0.7683


[...]
    100      -1.8204      2.00000
    101      -1.8201      2.00000
    102      -1.8192      2.00000
    103      -1.7593      2.00000
    104      -1.7592      2.00000
    105      -1.7582      2.00000
    106      -1.2427      2.00000
    107      -1.2424      2.00000
    108      -1.2423      2.00000
    109       6.0538      0.00000
    110       6.0542      0.00000
    111       6.0544      0.00000
    112       6.1815      0.00000
    113       6.1817      0.00000
    114       6.1820      0.00000
    115       6.3163      0.00000
    116       6.3170      0.00000
    117       6.3173      0.00000
    118       6.7047      0.00000
    119       6.7051      0.00000
    120       6.7055      0.00000
    121       7.3092      0.00000
    122       7.3094      0.00000
    123       7.3099      0.00000
    124       7.5879      0.00000
    125       7.5881      0.00000
    126       7.5887      0.00000
    127       8.1124      0.00000
    128       8.1129      0.00000
    129       8.1142      0.00000
    130       8.2627      0.00000
    131       8.2642      0.00000
    132       8.2670      0.00000
    133       8.5437      0.00000
    134       8.5466      0.00000
    135       8.5518      0.00000
    136       8.5929      0.00000
    137       8.5935      0.00000
    138       8.6030      0.00000
    139       9.1063      0.00000
    140       9.1392      0.00000
    141       9.1482      0.00000
    142       9.3974      0.00000
    143       9.4352      0.00000
    144       9.5388      0.00000
    145       9.8047      0.00000
    146       9.8636      0.00000
    147      10.0052      0.00000
    148      10.2274      0.00000


--------------------------------------------------------------------------------------------------------


 soft charge-density along one line, spin component           1
         0         1         2         3         4         5         6         7         8         9
 total charge-density along one line

 pseudopotential strength for first ion, spin component:           1
 12.518  21.061  -0.015   0.011  -0.007  -0.027   0.020  -0.012
 21.061  35.433  -0.025   0.018  -0.012  -0.045   0.033  -0.021
 -0.015  -0.025  -3.207   0.003   0.003  -5.743   0.005   0.006
  0.011   0.018   0.003  -3.204   0.001   0.005  -5.737   0.003
 -0.007  -0.012   0.003   0.001  -3.213   0.006   0.003  -5.753
 -0.027  -0.045  -5.743   0.005   0.006 -10.260   0.010   0.010
  0.020   0.033   0.005  -5.737   0.003   0.010 -10.250   0.004
 -0.012  -0.021   0.006   0.003  -5.753   0.010   0.004 -10.278
 total augmentation occupancy for first ion, spin component:           1
  8.910  -3.318  -0.504   0.384  -0.232   0.305  -0.234   0.141
 -3.318   1.291   0.395  -0.301   0.182  -0.196   0.151  -0.091
 -0.504   0.395   6.173   0.003  -0.058  -2.097   0.087   0.113
  0.384  -0.301   0.003   6.018  -0.001   0.087  -1.940   0.041
 -0.232   0.182  -0.058  -0.001   6.282   0.113   0.041  -2.294
  0.305  -0.196  -2.097   0.087   0.113   0.729  -0.060  -0.075
 -0.234   0.151   0.087  -1.940   0.041  -0.060   0.638  -0.028
  0.141  -0.091   0.113   0.041  -2.294  -0.075  -0.028   0.858


------------------------ aborting loop because EDIFF is reached ----------------------------------------


    FORLOC:  cpu time      0.0206: real time      0.0206
    FORNL :  cpu time      1.8764: real time      1.8774
    FORCOR:  cpu time      0.5393: real time      0.5402
    OFIELD:  cpu time      0.0021: real time      0.0021

 VOLUME and BASIS-vectors are now :
 -----------------------------------------------------------------------------
  energy-cutoff  :     1000.00
  volume of cell :      616.54
      direct lattice vectors                 reciprocal lattice vectors
     9.320000000  0.000000000  0.000000000     0.107296137  0.061947429 -0.000000000
    -4.660000000  8.071360000  0.000000000     0.000000000  0.123894858  0.000000000
     0.000000000  0.000000000  8.196000000     0.000000000 -0.000000000  0.122010737

  length of vectors
     9.320000000  9.320002803  8.196000000     0.123894895  0.123894858  0.122010737


 FORCES acting on ions:
    Electron-Ion                     Ewald-Force                    Non-Local-Force
 -----------------------------------------------------------------------------------------------
   -.615E+02 -.137E+03 0.606E+02   0.659E+02 0.146E+03 -.676E+02   -.457E+01 -.993E+01 0.726E+01
   0.149E+03 0.151E+02 0.606E+02   -.160E+03 -.160E+02 -.676E+02   0.109E+02 0.100E+01 0.726E+01
   -.876E+02 0.122E+03 0.606E+02   0.937E+02 -.130E+03 -.676E+02   -.631E+01 0.893E+01 0.726E+01
   0.876E+02 0.122E+03 0.606E+02   -.937E+02 -.130E+03 -.676E+02   0.631E+01 0.892E+01 0.726E+01
   0.615E+02 -.137E+03 0.606E+02   -.659E+02 0.146E+03 -.676E+02   0.457E+01 -.993E+01 0.726E+01
   -.149E+03 0.151E+02 0.606E+02   0.160E+03 -.160E+02 -.676E+02   -.109E+02 0.100E+01 0.726E+01
   -.617E+02 -.137E+03 0.605E+02   0.661E+02 0.146E+03 -.676E+02   -.458E+01 -.992E+01 0.726E+01
   0.149E+03 0.148E+02 0.605E+02   -.160E+03 -.158E+02 -.676E+02   0.109E+02 0.998E+00 0.726E+01
   -.874E+02 0.122E+03 0.605E+02   0.935E+02 -.130E+03 -.676E+02   -.630E+01 0.892E+01 0.726E+01
   0.874E+02 0.122E+03 0.605E+02   -.935E+02 -.130E+03 -.676E+02   0.630E+01 0.892E+01 0.726E+01
   0.617E+02 -.137E+03 0.605E+02   -.661E+02 0.146E+03 -.676E+02   0.458E+01 -.992E+01 0.726E+01
   -.149E+03 0.149E+02 0.605E+02   0.160E+03 -.158E+02 -.676E+02   -.109E+02 0.998E+00 0.726E+01
   -.617E+02 -.137E+03 0.605E+02   0.661E+02 0.146E+03 -.676E+02   -.457E+01 -.992E+01 0.726E+01
   0.149E+03 0.149E+02 0.605E+02   -.160E+03 -.159E+02 -.676E+02   0.109E+02 0.100E+01 0.726E+01
   -.875E+02 0.122E+03 0.605E+02   0.936E+02 -.130E+03 -.676E+02   -.631E+01 0.892E+01 0.726E+01
   0.875E+02 0.122E+03 0.605E+02   -.936E+02 -.130E+03 -.676E+02   0.631E+01 0.892E+01 0.726E+01
   0.617E+02 -.137E+03 0.605E+02   -.661E+02 0.146E+03 -.676E+02   0.457E+01 -.992E+01 0.726E+01
   -.149E+03 0.149E+02 0.605E+02   0.160E+03 -.159E+02 -.676E+02   -.109E+02 0.100E+01 0.726E+01
   -.672E+01 -.169E+02 0.538E+02   0.680E+01 0.171E+02 -.594E+02   -.950E-01 -.178E+00 0.589E+01
   0.180E+02 0.264E+01 0.538E+02   -.182E+02 -.264E+01 -.594E+02   0.202E+00 0.651E-02 0.589E+01
   -.113E+02 0.143E+02 0.538E+02   0.114E+02 -.144E+02 -.594E+02   -.107E+00 0.171E+00 0.589E+01
   0.113E+02 0.143E+02 0.538E+02   -.114E+02 -.144E+02 -.594E+02   0.107E+00 0.171E+00 0.589E+01
   0.672E+01 -.169E+02 0.538E+02   -.680E+01 0.171E+02 -.594E+02   0.952E-01 -.178E+00 0.589E+01
   -.180E+02 0.264E+01 0.538E+02   0.182E+02 -.264E+01 -.594E+02   -.202E+00 0.654E-02 0.589E+01
   -.673E+01 -.169E+02 0.538E+02   0.681E+01 0.170E+02 -.594E+02   -.932E-01 -.176E+00 0.589E+01
   0.180E+02 0.262E+01 0.538E+02   -.182E+02 -.263E+01 -.594E+02   0.199E+00 0.718E-02 0.589E+01
   -.113E+02 0.143E+02 0.538E+02   0.114E+02 -.144E+02 -.594E+02   -.106E+00 0.169E+00 0.589E+01
   0.113E+02 0.143E+02 0.538E+02   -.114E+02 -.144E+02 -.594E+02   0.106E+00 0.169E+00 0.589E+01
   0.673E+01 -.169E+02 0.538E+02   -.681E+01 0.170E+02 -.594E+02   0.931E-01 -.176E+00 0.589E+01
   -.180E+02 0.263E+01 0.538E+02   0.182E+02 -.263E+01 -.594E+02   -.199E+00 0.720E-02 0.589E+01
   -.673E+01 -.169E+02 0.538E+02   0.681E+01 0.171E+02 -.594E+02   -.942E-01 -.177E+00 0.589E+01
   0.180E+02 0.262E+01 0.538E+02   -.182E+02 -.263E+01 -.594E+02   0.201E+00 0.651E-02 0.589E+01
   -.113E+02 0.143E+02 0.538E+02   0.114E+02 -.144E+02 -.594E+02   -.106E+00 0.170E+00 0.589E+01
   0.113E+02 0.143E+02 0.538E+02   -.114E+02 -.144E+02 -.594E+02   0.106E+00 0.170E+00 0.589E+01
   0.673E+01 -.169E+02 0.538E+02   -.682E+01 0.171E+02 -.594E+02   0.946E-01 -.177E+00 0.589E+01
   -.180E+02 0.263E+01 0.538E+02   0.182E+02 -.263E+01 -.594E+02   -.201E+00 0.668E-02 0.589E+01
   -.244E+02 -.482E+02 -.143E+02   0.267E+02 0.532E+02 0.165E+02   -.243E+01 -.523E+01 -.233E+01
   0.540E+02 0.298E+01 -.143E+02   -.595E+02 -.348E+01 0.165E+02   0.575E+01 0.511E+00 -.233E+01
   -.296E+02 0.452E+02 -.143E+02   0.327E+02 -.498E+02 0.165E+02   -.332E+01 0.472E+01 -.233E+01
   0.296E+02 0.452E+02 -.143E+02   -.327E+02 -.498E+02 0.165E+02   0.332E+01 0.472E+01 -.233E+01
   0.244E+02 -.482E+02 -.143E+02   -.267E+02 0.532E+02 0.165E+02   0.243E+01 -.523E+01 -.233E+01
   -.540E+02 0.298E+01 -.143E+02   0.595E+02 -.348E+01 0.165E+02   -.575E+01 0.511E+00 -.233E+01
   -.244E+02 -.482E+02 -.143E+02   0.267E+02 0.532E+02 0.165E+02   -.243E+01 -.523E+01 -.233E+01
   0.540E+02 0.295E+01 -.143E+02   -.595E+02 -.345E+01 0.165E+02   0.575E+01 0.509E+00 -.233E+01
   -.295E+02 0.453E+02 -.143E+02   0.327E+02 -.498E+02 0.165E+02   -.332E+01 0.472E+01 -.233E+01
   0.295E+02 0.453E+02 -.143E+02   -.327E+02 -.498E+02 0.165E+02   0.332E+01 0.472E+01 -.233E+01
   0.244E+02 -.482E+02 -.143E+02   -.268E+02 0.532E+02 0.165E+02   0.243E+01 -.523E+01 -.233E+01
   -.540E+02 0.296E+01 -.143E+02   0.595E+02 -.345E+01 0.165E+02   -.575E+01 0.509E+00 -.233E+01
   -.244E+02 -.482E+02 -.143E+02   0.267E+02 0.532E+02 0.166E+02   -.243E+01 -.523E+01 -.233E+01
   0.540E+02 0.297E+01 -.143E+02   -.595E+02 -.346E+01 0.166E+02   0.575E+01 0.509E+00 -.233E+01
   -.296E+02 0.453E+02 -.143E+02   0.327E+02 -.498E+02 0.166E+02   -.332E+01 0.472E+01 -.233E+01
   0.296E+02 0.453E+02 -.143E+02   -.327E+02 -.498E+02 0.166E+02   0.331E+01 0.472E+01 -.233E+01
   0.244E+02 -.482E+02 -.143E+02   -.267E+02 0.532E+02 0.166E+02   0.243E+01 -.523E+01 -.233E+01
   -.540E+02 0.297E+01 -.143E+02   0.595E+02 -.347E+01 0.166E+02   -.575E+01 0.509E+00 -.233E+01
   -.216E+03 -.216E+02 -.824E+02   0.254E+03 0.251E+02 0.110E+03   -.381E+02 -.355E+01 -.284E+02
   0.127E+03 -.176E+03 -.824E+02   -.149E+03 0.207E+03 0.110E+03   0.221E+02 -.312E+02 -.284E+02
   0.893E+02 0.198E+03 -.824E+02   -.105E+03 -.232E+03 0.110E+03   0.160E+02 0.348E+02 -.284E+02
   -.893E+02 0.198E+03 -.824E+02   0.105E+03 -.232E+03 0.110E+03   -.160E+02 0.348E+02 -.284E+02
   0.216E+03 -.216E+02 -.824E+02   -.254E+03 0.251E+02 0.110E+03   0.381E+02 -.356E+01 -.284E+02
   -.127E+03 -.176E+03 -.824E+02   0.149E+03 0.207E+03 0.110E+03   -.221E+02 -.312E+02 -.284E+02
   -.216E+03 -.215E+02 -.824E+02   0.254E+03 0.250E+02 0.110E+03   -.381E+02 -.354E+01 -.284E+02
   0.127E+03 -.176E+03 -.824E+02   -.149E+03 0.207E+03 0.110E+03   0.221E+02 -.313E+02 -.284E+02
   0.893E+02 0.198E+03 -.824E+02   -.105E+03 -.232E+03 0.110E+03   0.160E+02 0.348E+02 -.284E+02
   -.893E+02 0.198E+03 -.824E+02   0.105E+03 -.232E+03 0.110E+03   -.160E+02 0.348E+02 -.284E+02
   0.216E+03 -.215E+02 -.824E+02   -.254E+03 0.250E+02 0.110E+03   0.381E+02 -.354E+01 -.284E+02
   -.127E+03 -.176E+03 -.824E+02   0.149E+03 0.207E+03 0.110E+03   -.221E+02 -.313E+02 -.284E+02
   -.216E+03 -.216E+02 -.824E+02   0.254E+03 0.251E+02 0.110E+03   -.381E+02 -.355E+01 -.283E+02
   0.127E+03 -.176E+03 -.824E+02   -.149E+03 0.207E+03 0.110E+03   0.221E+02 -.313E+02 -.283E+02
   0.893E+02 0.198E+03 -.824E+02   -.105E+03 -.232E+03 0.110E+03   0.160E+02 0.348E+02 -.283E+02
   -.893E+02 0.198E+03 -.824E+02   0.105E+03 -.232E+03 0.110E+03   -.160E+02 0.348E+02 -.283E+02
   0.216E+03 -.216E+02 -.824E+02   -.254E+03 0.251E+02 0.110E+03   0.381E+02 -.355E+01 -.283E+02
   -.127E+03 -.176E+03 -.824E+02   0.149E+03 0.207E+03 0.110E+03   -.221E+02 -.313E+02 -.283E+02
 -----------------------------------------------------------------------------------------------
   0.977E-02 -.575E-02 0.316E+03   0.284E-12 0.853E-13 0.540E-12   -.979E-02 0.578E-02 -.316E+03


 POSITION                                       TOTAL-FORCE (eV/Angst)
 -----------------------------------------------------------------------------------
      0.56243      1.21972      8.06617        -0.113815     -0.241786      0.129118
      3.32305      7.94752      8.06618         0.266158      0.022523      0.129249
     -3.88371      6.97438      8.06615        -0.152699      0.219351      0.129169
      3.88491      6.97442      3.96817         0.152561      0.219455      0.129138
     -0.56123      1.21975      3.96818         0.113507     -0.241801      0.129225
     -3.32184      7.94757      3.96815        -0.266349      0.022497      0.129175
      5.22321      3.90970      2.60276        -0.110345     -0.239316      0.130868
      3.32311      2.56751      2.60276         0.262556      0.025009      0.130736
      5.43551      1.59308      2.60278        -0.152245      0.215318      0.130454
      3.88571      1.59308      6.70076         0.152069      0.215229      0.130849
      4.09802      3.90971      6.70076         0.109585     -0.239900      0.130729
      5.99811      2.56753      6.70078        -0.262582      0.024244      0.130434
      0.56285      6.60029      5.33397        -0.108620     -0.236835      0.128452
     -1.33692      5.25765      5.33397         0.260333      0.024885      0.127819
      0.77574      4.28371      5.33393        -0.151594      0.212835      0.127898
     -0.77459      4.28377      1.23597         0.150762      0.212447      0.128379
     -0.56171      6.60035      1.23597         0.108650     -0.237858      0.127786
      1.33807      5.25769      1.23593        -0.260080      0.024982      0.127859
      0.56889      1.23152      6.95995        -0.014291     -0.031368      0.247251
      3.30960      7.94727      6.95996         0.034305      0.003411      0.247205
     -3.87676      6.96285      6.95993        -0.020081      0.028032      0.247091
      3.87792      6.96292      2.86195         0.020023      0.028060      0.247258
     -0.56774      1.23152      2.86196         0.014190     -0.031418      0.247202
     -3.30838      7.94731      2.86193        -0.034322      0.003363      0.247096
      5.22940      3.92100      1.49665        -0.012365     -0.030755      0.244080
      3.31023      2.56722      1.49665         0.032721      0.004807      0.244099
      5.44222      1.58204      1.49667        -0.020549      0.026074      0.244029
      3.87901      1.58206      5.59465         0.020448      0.026088      0.244078
      4.09184      3.92100      5.59465         0.012196     -0.030736      0.244099
      6.01102      2.56724      5.59467        -0.032855      0.004759      0.244025
      0.56925      6.61194      4.22786        -0.012643     -0.030118      0.243174
     -1.35019      5.25745      4.22786         0.032356      0.004102      0.243385
      0.78258      4.27232      4.22782        -0.019783      0.026026      0.243340
     -0.78149      4.27241      0.12986         0.019755      0.026006      0.243155
     -0.56818      6.61194      0.12986         0.012633     -0.030066      0.243376
      1.35135      5.25747      0.12982        -0.032424      0.004132      0.243329
      0.98610      2.13495      0.29092        -0.115007     -0.221573     -0.079435
      2.31860      7.85681      0.29092         0.249329      0.011164     -0.079447
     -3.30293      6.14986      0.29089        -0.134359      0.210335     -0.079380
      3.30413      6.14990      4.38892         0.134362      0.210392     -0.079421
     -0.98489      2.13499      4.38892         0.115005     -0.221498     -0.079439
     -2.31740      7.85685      4.38889        -0.249319      0.011161     -0.079365
      5.64746      4.82487      3.02305        -0.113468     -0.222811     -0.079060
      2.31842      2.47735      3.02305         0.249548      0.013082     -0.079068
      6.01596      0.76808      3.02306        -0.136309      0.209647     -0.078817
      3.30527      0.76808      7.12105         0.136195      0.209671     -0.079051
      3.67376      4.82487      7.12105         0.113457     -0.222643     -0.079060
      7.00280      2.47735      7.12106        -0.249691      0.013206     -0.078803
      0.98694      7.51542      5.75472        -0.114377     -0.223850     -0.080819
     -2.34146      5.16734      5.75470         0.250163      0.012795     -0.080423
      1.35622      3.45890      5.75466        -0.136269      0.210512     -0.080472
     -1.35507      3.45894      1.65672         0.136627      0.210970     -0.080811
     -0.98577      7.51546      1.65670         0.114020     -0.223028     -0.080417
      2.34261      5.16739      1.65666        -0.250415      0.012746     -0.080463
      1.34879      0.12379      0.34053        -0.482601     -0.050289     -0.296828
      8.53897      1.10512      0.34061         0.284825     -0.392872     -0.297261
      4.09401      6.84133      0.34056         0.198137      0.443076     -0.297007
      5.22719      6.84137      4.43853        -0.197788      0.443115     -0.296850
      7.97243      0.12383      4.43861         0.482647     -0.050290     -0.297257
      0.78224      1.10518      4.43856        -0.284617     -0.393165     -0.296967
      6.00915      2.81310      3.07319        -0.490923     -0.042389     -0.295770
      3.87982      3.79647      3.07321         0.282063     -0.404363     -0.296244
      4.09285      1.46075      3.07320         0.209384      0.445706     -0.295593
      5.22835      1.46073      7.17119        -0.208742      0.446314     -0.295740
      3.31207      2.81310      7.17121         0.491202     -0.042075     -0.296253
      5.44138      3.79647      7.17120        -0.281288     -0.404160     -0.295585
      1.34895      5.50388      5.80402        -0.486070     -0.043219     -0.290385
     -0.78043      6.48662      5.80412         0.280255     -0.399662     -0.290813
     -0.56685      4.15113      5.80404         0.206350      0.442631     -0.290550
      0.56798      4.15119      1.70602        -0.205542      0.442506     -0.290373
     -1.34779      5.50392      1.70612         0.486152     -0.042850     -0.290796
      0.78160      6.48670      1.70604        -0.280098     -0.399969     -0.290586
 -----------------------------------------------------------------------------------
    total drift:                               -0.000015      0.000032      0.010115


--------------------------------------------------------------------------------------------------------



  FREE ENERGIE OF THE ION-ELECTRON SYSTEM (eV)
  ---------------------------------------------------
  free  energy   TOTEN  =      -465.71265453 eV

  energy  without entropy=     -465.71265453  energy(sigma->0) =     -465.71265453



--------------------------------------------------------------------------------------------------------


    POTLOK:  cpu time      0.4876: real time      0.4882


--------------------------------------------------------------------------------------------------------


 stress matrix after NEB project (eV)
      0.00000      0.00000      0.00000
      0.00000      0.00000      0.00000
      0.00000      0.00000      0.00000
  FORCES: max atom, RMS     0.575178    0.368100
  FORCE total and by dimension    3.123436    0.491202
  Stress total and by dimension    0.000000    0.000000
     LOOP+:  cpu time    208.8036: real time    209.2563
    4ORBIT:  cpu time      0.0000: real time      0.0000

 total amount of memory used by VASP MPI-rank0    80434. kBytes
=======================================================================

   base      :      30000. kBytes
   nonl-proj :       5345. kBytes
   fftplans  :       2986. kBytes
   grid      :       6889. kBytes
   one-center:          9. kBytes
   wavefun   :      35205. kBytes

  
  
 General timing and accounting informations for this job:
 ========================================================
  
                  Total CPU time used (sec):      221.498
                            User time (sec):      219.211
                          System time (sec):        2.287
                         Elapsed time (sec):      225.895
  
                   Maximum memory used (kb):      280636.
                   Average memory used (kb):          N/A
  
                          Minor page faults:        41638
                          Major page faults:         1078
                 Voluntary context switches:         3790
