       N       E                     dE             d eps       ncg     rms          ort
DAV:   1     0.374658282926E+03    0.37466E+03   -0.19207E+04   512   0.892E+01
DAV:   2    -0.462404982632E+02   -0.42090E+03   -0.42013E+03   512   0.835E+00
DAV:   3    -0.472227157483E+02   -0.98222E+00   -0.98222E+00   512   0.135E+00
DAV:   4    -0.472258689685E+02   -0.31532E-02   -0.31532E-02   512   0.773E-02
DAV:   5    -0.472258690143E+02   -0.45777E-07   -0.63971E-07   512   0.303E-04
SDA:   6    -0.335659380561E+02    0.13660E+02   -0.63971E-07   512   0.400E+02 0.000E+00
CGA:   7    -0.406604941221E+02   -0.70946E+01   -0.70798E+01   512   0.369E+01 0.242E-01
CGA:   8    -0.416650528096E+02   -0.10046E+01   -0.10026E+01   512   0.141E+01 0.517E-02
CGA:   9    -0.420148421038E+02   -0.34979E+00   -0.35048E+00   512   0.518E+00-0.113E-01
CGA:  10    -0.421635396572E+02   -0.14870E+00   -0.14940E+00   512   0.161E+00-0.622E-02
CGA:  11    -0.422058122933E+02   -0.42273E-01   -0.42316E-01   512   0.410E-01-0.515E-03
CGA:  12    -0.422169881380E+02   -0.11176E-01   -0.11179E-01   512   0.960E-02-0.385E-04
CGA:  13    -0.422197852778E+02   -0.27971E-02   -0.27988E-02   512   0.228E-02-0.222E-04
CGA:  14    -0.422205003510E+02   -0.71507E-03   -0.71649E-03   512   0.596E-03-0.155E-04
CGA:  15    -0.422207018078E+02   -0.20146E-03   -0.20225E-03   512   0.173E-03-0.686E-05
CGA:  16    -0.422207638584E+02   -0.62051E-04   -0.62215E-04   512   0.491E-04-0.125E-05
CGA:  17    -0.422207812599E+02   -0.17401E-04   -0.17255E-04   512   0.123E-04 0.125E-05
CGA:  18    -0.422207857192E+02   -0.44593E-05   -0.43760E-05   512   0.300E-05 0.817E-06
CGA:  19    -0.422207869282E+02   -0.12090E-05   -0.11878E-05   512   0.848E-06 0.184E-06
CGA:  20    -0.422207872811E+02   -0.35289E-06   -0.35203E-06   512   0.243E-06 0.180E-07
CGA:  21    -0.422207873861E+02   -0.10500E-06   -0.11292E-06   512   0.827E-07-0.320E-07
CGA:  22    -0.422207874110E+02   -0.24942E-07   -0.25849E-07   512   0.213E-07 0.255E-08
CGA:  23    -0.422207874143E+02   -0.32924E-08   -0.46332E-08   512   0.755E-08 0.941E-08
   1 F= -.42220787E+02 E0= -.42220787E+02  d E =-.185343E-49
 Found    12 degrees of freedom:
       N       E                     dE             d eps       ncg     rms          ort
SDA:   1    -0.421928924432E+02    0.27895E-01    0.00000E+00   512   0.467E-01 0.000E+00
CGA:   2    -0.422147565616E+02   -0.21864E-01   -0.21860E-01   512   0.188E-01 0.943E-05
CGA:   3    -0.422182775288E+02   -0.35210E-02   -0.35201E-02   512   0.311E-02-0.768E-05
CGA:   4    -0.422189197159E+02   -0.64219E-03   -0.64224E-03   512   0.724E-03-0.959E-06
CGA:   5    -0.422190848078E+02   -0.16509E-03   -0.16515E-03   512   0.178E-03 0.110E-05
CGA:   6    -0.422191336165E+02   -0.48809E-04   -0.48800E-04   512   0.544E-04 0.121E-05
CGA:   7    -0.422191498215E+02   -0.16205E-04   -0.16192E-04   512   0.198E-04 0.460E-06
CGA:   8    -0.422191560685E+02   -0.62470E-05   -0.62434E-05   512   0.676E-05 0.968E-07
CGA:   9    -0.422191583394E+02   -0.22709E-05   -0.22722E-05   512   0.214E-05-0.643E-08
CGA:  10    -0.422191590876E+02   -0.74819E-06   -0.75093E-06   512   0.691E-06-0.214E-07
CGA:  11    -0.422191593342E+02   -0.24661E-06   -0.24709E-06   512   0.221E-06 0.804E-08
CGA:  12    -0.422191594135E+02   -0.79253E-07   -0.79013E-07   512   0.641E-07 0.203E-07
CGA:  13    -0.422191594376E+02   -0.24069E-07   -0.24642E-07   512   0.183E-07 0.870E-08
CGA:  14    -0.422191594452E+02   -0.76761E-08   -0.94701E-08   512   0.707E-08-0.207E-08
   2 F= -.42219159E+02 E0= -.42219159E+02  d E =-.363733E-55
       N       E                     dE             d eps       ncg     rms          ort
SDA:   1    -0.421132358421E+02    0.10592E+00    0.00000E+00   512   0.190E+00 0.000E+00
CGA:   2    -0.421997679347E+02   -0.86532E-01   -0.86638E-01   512   0.839E-01-0.603E-03
CGA:   3    -0.422154674498E+02   -0.15700E-01   -0.15714E-01   512   0.131E-01-0.835E-05
CGA:   4    -0.422181694724E+02   -0.27020E-02   -0.27029E-02   512   0.306E-02 0.210E-05
CGA:   5    -0.422188680060E+02   -0.69853E-03   -0.69853E-03   512   0.726E-03-0.153E-05
CGA:   6    -0.422190692472E+02   -0.20124E-03   -0.20119E-03   512   0.227E-03-0.205E-05
CGA:   7    -0.422191357838E+02   -0.66537E-04   -0.66533E-04   512   0.825E-04-0.666E-06
CGA:   8    -0.422191618108E+02   -0.26027E-04   -0.26029E-04   512   0.287E-04-0.115E-06
CGA:   9    -0.422191713792E+02   -0.95683E-05   -0.95682E-05   512   0.915E-05 0.396E-07
CGA:  10    -0.422191745470E+02   -0.31678E-05   -0.31651E-05   512   0.287E-05 0.101E-06
CGA:  11    -0.422191756154E+02   -0.10684E-05   -0.10685E-05   512   0.965E-06 0.174E-07
CGA:  12    -0.422191760058E+02   -0.39042E-06   -0.39537E-06   512   0.344E-06-0.417E-07
CGA:  13    -0.422191761393E+02   -0.13353E-06   -0.13779E-06   512   0.112E-06-0.307E-07
CGA:  14    -0.422191761808E+02   -0.41533E-07   -0.44557E-07   512   0.353E-07-0.161E-07
CGA:  15    -0.422191761930E+02   -0.12160E-07   -0.14754E-07   512   0.130E-07-0.834E-08
CGA:  16    -0.422191761963E+02   -0.32815E-08   -0.53058E-08   512   0.572E-08-0.372E-08
CGA:  17    -0.422191761637E+02    0.32554E-07   -0.17013E-07   512   0.120E-06-0.194E-07
CGA:  18    -0.422191761936E+02   -0.29835E-07   -0.30652E-07   512   0.101E-07 0.140E-08
CGA:  19    -0.422191761974E+02   -0.38526E-08   -0.44710E-08   512   0.290E-08-0.369E-10
   3 F= -.42219176E+02 E0= -.42219176E+02  d E =-.538150E-50
       N       E                     dE             d eps       ncg     rms          ort
SDA:   1    -0.421649242273E+02    0.54252E-01    0.00000E+00   512   0.982E-01 0.000E+00
CGA:   2    -0.422067690593E+02   -0.41845E-01   -0.41855E-01   512   0.540E-01-0.301E-04
CGA:   3    -0.422170905332E+02   -0.10321E-01   -0.10310E-01   512   0.698E-02 0.412E-04
CGA:   4    -0.422184869957E+02   -0.13965E-02   -0.13965E-02   512   0.173E-02-0.223E-05
CGA:   5    -0.422189028070E+02   -0.41581E-03   -0.41613E-03   512   0.431E-03-0.432E-06
CGA:   6    -0.422190253989E+02   -0.12259E-03   -0.12279E-03   512   0.145E-03 0.439E-06
CGA:   7    -0.422190693753E+02   -0.43976E-04   -0.44054E-04   512   0.548E-04 0.253E-06
CGA:   8    -0.422190875330E+02   -0.18158E-04   -0.18187E-04   512   0.204E-04 0.126E-06
CGA:   9    -0.422190944511E+02   -0.69181E-05   -0.69335E-05   512   0.676E-05 0.760E-07
CGA:  10    -0.422190968256E+02   -0.23745E-05   -0.23804E-05   512   0.220E-05 0.322E-07
CGA:  11    -0.422190976247E+02   -0.79913E-06   -0.80121E-06   512   0.698E-06 0.968E-08
CGA:  12    -0.422190978872E+02   -0.26249E-06   -0.26407E-06   512   0.205E-06 0.732E-08
CGA:  13    -0.422190979648E+02   -0.77567E-07   -0.78604E-07   512   0.570E-07 0.234E-08
CGA:  14    -0.422190979886E+02   -0.23767E-07   -0.24453E-07   512   0.177E-07-0.460E-08
CGA:  15    -0.422190979946E+02   -0.60754E-08   -0.69715E-08   512   0.509E-08-0.154E-08
   4 F= -.42219098E+02 E0= -.42219098E+02  d E =-.261293E-83
       N       E                     dE             d eps       ncg     rms          ort
SDA:   1    -0.421127792269E+02    0.10632E+00    0.00000E+00   512   0.192E+00 0.000E+00
CGA:   2    -0.421964302590E+02   -0.83651E-01   -0.83632E-01   512   0.984E-01-0.154E-03
CGA:   3    -0.422150821402E+02   -0.18652E-01   -0.18690E-01   512   0.137E-01-0.108E-03
CGA:   4    -0.422178460386E+02   -0.27639E-02   -0.27653E-02   512   0.345E-02-0.629E-06
CGA:   5    -0.422186676159E+02   -0.82158E-03   -0.82189E-03   512   0.881E-03 0.109E-06
CGA:   6    -0.422189185381E+02   -0.25092E-03   -0.25101E-03   512   0.302E-03-0.287E-07
CGA:   7    -0.422190094701E+02   -0.90932E-04   -0.90964E-04   512   0.114E-03 0.439E-07
CGA:   8    -0.422190465083E+02   -0.37038E-04   -0.37022E-04   512   0.408E-04-0.233E-06
CGA:   9    -0.422190602627E+02   -0.13754E-04   -0.13734E-04   512   0.134E-04-0.280E-06
CGA:  10    -0.422190649206E+02   -0.46580E-05   -0.46531E-05   512   0.436E-05-0.912E-07
CGA:  11    -0.422190665003E+02   -0.15796E-05   -0.15807E-05   512   0.142E-05 0.405E-08
CGA:  12    -0.422190670379E+02   -0.53765E-06   -0.53889E-06   512   0.440E-06 0.143E-07
CGA:  13    -0.422190672057E+02   -0.16778E-06   -0.16865E-06   512   0.126E-06 0.537E-08
CGA:  14    -0.422190672560E+02   -0.50244E-07   -0.50935E-07   512   0.356E-07-0.198E-08
CGA:  15    -0.422190672721E+02   -0.16102E-07   -0.18338E-07   512   0.172E-07-0.109E-07
CGA:  16    -0.422190672768E+02   -0.46948E-08   -0.66674E-08   512   0.833E-08-0.637E-08
   5 F= -.42219067E+02 E0= -.42219067E+02  d E =-.880562E-26
       N       E                     dE             d eps       ncg     rms          ort
SDA:   1    -0.421658726100E+02    0.53195E-01    0.00000E+00   512   0.942E-01 0.000E+00
CGA:   2    -0.422114261652E+02   -0.45554E-01   -0.45554E-01   512   0.333E-01-0.387E-04
CGA:   3    -0.422177948748E+02   -0.63687E-02   -0.63693E-02   512   0.557E-02-0.451E-06
CGA:   4    -0.422189014090E+02   -0.11065E-02   -0.11069E-02   512   0.133E-02-0.192E-05
CGA:   5    -0.422192040597E+02   -0.30265E-03   -0.30259E-03   512   0.334E-03-0.128E-05
CGA:   6    -0.422192959909E+02   -0.91931E-04   -0.91831E-04   512   0.106E-03-0.927E-06
CGA:   7    -0.422193277012E+02   -0.31710E-04   -0.31685E-04   512   0.390E-04-0.312E-06
CGA:   8    -0.422193399645E+02   -0.12263E-04   -0.12278E-04   512   0.136E-04 0.155E-06
CGA:   9    -0.422193445013E+02   -0.45368E-05   -0.45505E-05   512   0.442E-05 0.212E-06
CGA:  10    -0.422193460247E+02   -0.15234E-05   -0.15299E-05   512   0.139E-05 0.118E-06
CGA:  11    -0.422193465446E+02   -0.51990E-06   -0.52097E-06   512   0.445E-06 0.112E-07
CGA:  12    -0.422193467202E+02   -0.17557E-06   -0.17670E-06   512   0.147E-06-0.183E-07
CGA:  13    -0.422193467750E+02   -0.54797E-07   -0.55927E-07   512   0.452E-07-0.101E-07
CGA:  14    -0.422193467927E+02   -0.17762E-07   -0.19734E-07   512   0.183E-07-0.973E-08
CGA:  15    -0.422193467973E+02   -0.45547E-08   -0.54500E-08   512   0.499E-08-0.646E-09
   6 F= -.42219347E+02 E0= -.42219347E+02  d E =-.212008E-59
       N       E                     dE             d eps       ncg     rms          ort
SDA:   1    -0.421140047079E+02    0.10534E+00    0.00000E+00   512   0.186E+00 0.000E+00
CGA:   2    -0.422044467623E+02   -0.90442E-01   -0.90456E-01   512   0.600E-01-0.178E-03
CGA:   3    -0.422161474284E+02   -0.11701E-01   -0.11699E-01   512   0.117E-01-0.113E-04
CGA:   4    -0.422184521478E+02   -0.23047E-02   -0.23051E-02   512   0.258E-02-0.857E-06
CGA:   5    -0.422190602500E+02   -0.60810E-03   -0.60859E-03   512   0.679E-03 0.143E-05
CGA:   6    -0.422192429251E+02   -0.18268E-03   -0.18291E-03   512   0.218E-03 0.155E-05
CGA:   7    -0.422193081857E+02   -0.65261E-04   -0.65328E-04   512   0.789E-04 0.639E-06
CGA:   8    -0.422193328940E+02   -0.24708E-04   -0.24713E-04   512   0.269E-04 0.103E-07
CGA:   9    -0.422193417940E+02   -0.89000E-05   -0.88965E-05   512   0.826E-05-0.111E-06
CGA:  10    -0.422193446547E+02   -0.28607E-05   -0.28609E-05   512   0.262E-05-0.361E-07
CGA:  11    -0.422193455908E+02   -0.93615E-06   -0.93772E-06   512   0.830E-06 0.307E-07
CGA:  12    -0.422193458981E+02   -0.30729E-06   -0.30856E-06   512   0.250E-06 0.448E-07
CGA:  13    -0.422193459955E+02   -0.97360E-07   -0.98379E-07   512   0.747E-07 0.158E-07
CGA:  14    -0.422193460272E+02   -0.31690E-07   -0.33096E-07   512   0.243E-07-0.287E-08
CGA:  15    -0.422193460361E+02   -0.89658E-08   -0.10708E-07   512   0.853E-08-0.430E-08
   7 F= -.42219346E+02 E0= -.42219346E+02  d E =-.985075E-42
       N       E                     dE             d eps       ncg     rms          ort
SDA:   1    -0.421906432828E+02    0.28703E-01    0.00000E+00   512   0.532E-01 0.000E+00
CGA:   2    -0.422155418593E+02   -0.24899E-01   -0.24902E-01   512   0.178E-01-0.414E-04
CGA:   3    -0.422191335369E+02   -0.35917E-02   -0.35941E-02   512   0.359E-02 0.221E-06
CGA:   4    -0.422198277631E+02   -0.69423E-03   -0.69479E-03   512   0.755E-03 0.158E-06
CGA:   5    -0.422200014057E+02   -0.17364E-03   -0.17363E-03   512   0.181E-03-0.576E-06
CGA:   6    -0.422200488086E+02   -0.47403E-04   -0.47348E-04   512   0.538E-04-0.534E-06
CGA:   7    -0.422200646338E+02   -0.15825E-04   -0.15807E-04   512   0.183E-04-0.245E-06
CGA:   8    -0.422200703983E+02   -0.57645E-05   -0.57606E-05   512   0.624E-05-0.859E-07
CGA:   9    -0.422200724464E+02   -0.20481E-05   -0.20503E-05   512   0.192E-05 0.255E-07
CGA:  10    -0.422200731138E+02   -0.66740E-06   -0.66935E-06   512   0.601E-06 0.367E-07
CGA:  11    -0.422200733433E+02   -0.22955E-06   -0.23061E-06   512   0.209E-06-0.184E-08
CGA:  12    -0.422200734282E+02   -0.84909E-07   -0.86552E-07   512   0.757E-07-0.125E-07
CGA:  13    -0.422200734570E+02   -0.28767E-07   -0.30496E-07   512   0.263E-07-0.987E-08
CGA:  14    -0.422200734660E+02   -0.89585E-08   -0.10992E-07   512   0.112E-07-0.745E-08
   8 F= -.42220073E+02 E0= -.42220073E+02  d E =-.402082E-47
       N       E                     dE             d eps       ncg     rms          ort
SDA:   1    -0.422094417705E+02    0.10632E-01    0.00000E+00   512   0.209E-01 0.000E+00
CGA:   2    -0.422183415792E+02   -0.88998E-02   -0.88984E-02   512   0.713E-02 0.255E-04
CGA:   3    -0.422197240473E+02   -0.13825E-02   -0.13821E-02   512   0.137E-02 0.112E-05
CGA:   4    -0.422199952429E+02   -0.27120E-03   -0.27105E-03   512   0.276E-03-0.142E-05
CGA:   5    -0.422200573819E+02   -0.62139E-04   -0.62037E-04   512   0.568E-04-0.839E-06
CGA:   6    -0.422200715813E+02   -0.14199E-04   -0.14161E-04   512   0.136E-04-0.358E-06
CGA:   7    -0.422200753108E+02   -0.37295E-05   -0.37228E-05   512   0.385E-05-0.922E-07
CGA:   8    -0.422200765097E+02   -0.11989E-05   -0.11994E-05   512   0.123E-05-0.101E-07
CGA:   9    -0.422200769230E+02   -0.41322E-06   -0.41416E-06   512   0.381E-06 0.703E-08
CGA:  10    -0.422200770508E+02   -0.12787E-06   -0.12883E-06   512   0.103E-06 0.683E-08
CGA:  11    -0.422200770884E+02   -0.37560E-07   -0.38691E-07   512   0.308E-07-0.656E-08
CGA:  12    -0.422200770998E+02   -0.11394E-07   -0.14579E-07   512   0.189E-07-0.126E-07
CGA:  13    -0.422200771032E+02   -0.34324E-08   -0.55574E-08   512   0.935E-08-0.670E-08
   9 F= -.42220077E+02 E0= -.42220077E+02  d E =-.495142E-52
       N       E                     dE             d eps       ncg     rms          ort
SDA:   1    -0.422153199697E+02    0.47571E-02    0.00000E+00   512   0.103E-01 0.000E+00
CGA:   2    -0.422197363098E+02   -0.44163E-02   -0.44172E-02   512   0.352E-02-0.119E-04
CGA:   3    -0.422204142144E+02   -0.67790E-03   -0.67818E-03   512   0.657E-03-0.155E-05
CGA:   4    -0.422205436650E+02   -0.12945E-03   -0.12963E-03   512   0.133E-03 0.630E-06
CGA:   5    -0.422205731246E+02   -0.29460E-04   -0.29515E-04   512   0.268E-04 0.324E-06
CGA:   6    -0.422205796851E+02   -0.65605E-05   -0.65821E-05   512   0.600E-05 0.173E-06
CGA:   7    -0.422205812981E+02   -0.16130E-05   -0.16194E-05   512   0.158E-05 0.626E-07
CGA:   8    -0.422205817930E+02   -0.49488E-06   -0.49586E-06   512   0.494E-06 0.164E-08
CGA:   9    -0.422205819633E+02   -0.17026E-06   -0.17123E-06   512   0.162E-06-0.767E-08
CGA:  10    -0.422205820194E+02   -0.56130E-07   -0.57226E-07   512   0.485E-07-0.818E-08
CGA:  11    -0.422205820350E+02   -0.15621E-07   -0.16703E-07   512   0.131E-07-0.382E-08
CGA:  12    -0.422205820385E+02   -0.34725E-08   -0.45667E-08   512   0.365E-08-0.111E-08
  10 F= -.42220582E+02 E0= -.42220582E+02  d E =-.144036E-49
       N       E                     dE             d eps       ncg     rms          ort
SDA:   1    -0.422100017199E+02    0.10580E-01    0.00000E+00   512   0.208E-01 0.000E+00
CGA:   2    -0.422188257542E+02   -0.88240E-02   -0.88238E-02   512   0.726E-02 0.488E-06
CGA:   3    -0.422202372805E+02   -0.14115E-02   -0.14120E-02   512   0.136E-02-0.194E-05
CGA:   4    -0.422205005446E+02   -0.26326E-03   -0.26330E-03   512   0.270E-03-0.829E-06
CGA:   5    -0.422205612226E+02   -0.60678E-04   -0.60701E-04   512   0.535E-04 0.169E-07
CGA:   6    -0.422205741846E+02   -0.12962E-04   -0.12959E-04   512   0.116E-04-0.546E-07
CGA:   7    -0.422205772190E+02   -0.30343E-05   -0.30298E-05   512   0.281E-05-0.627E-07
CGA:   8    -0.422205780608E+02   -0.84189E-06   -0.84123E-06   512   0.797E-06-0.324E-07
CGA:   9    -0.422205783340E+02   -0.27317E-06   -0.27408E-06   512   0.260E-06-0.288E-07
CGA:  10    -0.422205784225E+02   -0.88470E-07   -0.89612E-07   512   0.768E-07-0.134E-07
CGA:  11    -0.422205784472E+02   -0.24693E-07   -0.25768E-07   512   0.189E-07-0.432E-08
CGA:  12    -0.422205784533E+02   -0.61209E-08   -0.75540E-08   512   0.642E-08-0.420E-08
  11 F= -.42220578E+02 E0= -.42220578E+02  d E =-.226824E-48
       N       E                     dE             d eps       ncg     rms          ort
SDA:   1    -0.422148577922E+02    0.57207E-02    0.00000E+00   512   0.103E-01 0.000E+00
CGA:   2    -0.422191898847E+02   -0.43321E-02   -0.43313E-02   512   0.398E-02 0.913E-05
CGA:   3    -0.422199415051E+02   -0.75162E-03   -0.75167E-03   512   0.697E-03 0.975E-07
CGA:   4    -0.422200756434E+02   -0.13414E-03   -0.13412E-03   512   0.138E-03-0.495E-06
CGA:   5    -0.422201073850E+02   -0.31742E-04   -0.31684E-04   512   0.284E-04-0.559E-06
CGA:   6    -0.422201143138E+02   -0.69288E-05   -0.69117E-05   512   0.641E-05-0.194E-06
CGA:   7    -0.422201159853E+02   -0.16715E-05   -0.16714E-05   512   0.158E-05-0.154E-07
CGA:   8    -0.422201164626E+02   -0.47727E-06   -0.47834E-06   512   0.463E-06 0.661E-08
CGA:   9    -0.422201166159E+02   -0.15334E-06   -0.15426E-06   512   0.142E-06 0.113E-07
CGA:  10    -0.422201166654E+02   -0.49527E-07   -0.50383E-07   512   0.415E-07 0.239E-08
CGA:  11    -0.422201166814E+02   -0.15969E-07   -0.17790E-07   512   0.164E-07-0.818E-08
CGA:  12    -0.422201166851E+02   -0.36598E-08   -0.74130E-08   512   0.133E-07-0.976E-08
  12 F= -.42220117E+02 E0= -.42220117E+02  d E =-.258447E-51
       N       E                     dE             d eps       ncg     rms          ort
SDA:   1    -0.422095312241E+02    0.10585E-01    0.00000E+00   512   0.207E-01 0.000E+00
CGA:   2    -0.422182935104E+02   -0.87623E-02   -0.87660E-02   512   0.775E-02-0.351E-04
CGA:   3    -0.422197561262E+02   -0.14626E-02   -0.14634E-02   512   0.141E-02-0.340E-05
CGA:   4    -0.422200297198E+02   -0.27359E-03   -0.27388E-03   512   0.284E-03 0.734E-06
CGA:   5    -0.422200935907E+02   -0.63871E-04   -0.63994E-04   512   0.579E-04 0.990E-06
CGA:   6    -0.422201078390E+02   -0.14248E-04   -0.14285E-04   512   0.135E-04 0.404E-06
CGA:   7    -0.422201115024E+02   -0.36635E-05   -0.36687E-05   512   0.359E-05 0.704E-07
CGA:   8    -0.422201126286E+02   -0.11262E-05   -0.11270E-05   512   0.113E-05-0.228E-07
CGA:   9    -0.422201130168E+02   -0.38818E-06   -0.39011E-06   512   0.373E-06-0.359E-07
CGA:  10    -0.422201131453E+02   -0.12851E-06   -0.13048E-06   512   0.115E-06-0.241E-07
CGA:  11    -0.422201131810E+02   -0.35643E-07   -0.36777E-07   512   0.294E-07-0.163E-08
CGA:  12    -0.422201131896E+02   -0.86620E-08   -0.96941E-08   512   0.784E-08 0.302E-08
  13 F= -.42220113E+02 E0= -.42220113E+02  d E =-.309208E-45
       N       E                     dE             d eps       ncg     rms          ort
SDA:   1    -0.421209710470E+02    0.99142E-01    0.00000E+00   512   0.189E+00 0.000E+00
CGA:   2    -0.422027834892E+02   -0.81812E-01   -0.81860E-01   512   0.642E-01-0.359E-03
CGA:   3    -0.422157374303E+02   -0.12954E-01   -0.12970E-01   512   0.137E-01-0.144E-04
CGA:   4    -0.422186054080E+02   -0.28680E-02   -0.28684E-02   512   0.287E-02-0.305E-05
CGA:   5    -0.422192883118E+02   -0.68290E-03   -0.68288E-03   512   0.692E-03-0.102E-05
CGA:   6    -0.422194796389E+02   -0.19133E-03   -0.19135E-03   512   0.217E-03 0.198E-06
CGA:   7    -0.422195485337E+02   -0.68895E-04   -0.68899E-04   512   0.782E-04-0.105E-06
CGA:   8    -0.422195738134E+02   -0.25280E-04   -0.25282E-04   512   0.243E-04-0.110E-06
CGA:   9    -0.422195816026E+02   -0.77892E-05   -0.77902E-05   512   0.609E-05 0.857E-07
CGA:  10    -0.422195836292E+02   -0.20265E-05   -0.20267E-05   512   0.156E-05 0.680E-07
CGA:  11    -0.422195842054E+02   -0.57620E-06   -0.57520E-06   512   0.485E-06 0.461E-07
CGA:  12    -0.422195844039E+02   -0.19851E-06   -0.19709E-06   512   0.171E-06 0.352E-07
CGA:  13    -0.422195844833E+02   -0.79453E-07   -0.79932E-07   512   0.635E-07 0.785E-08
CGA:  14    -0.422195845105E+02   -0.27107E-07   -0.28316E-07   512   0.196E-07 0.147E-09
CGA:  15    -0.422195845177E+02   -0.72159E-08   -0.88780E-08   512   0.633E-08-0.232E-08
  14 F= -.42219585E+02 E0= -.42219585E+02  d E =-.224395E-55
       N       E                     dE             d eps       ncg     rms          ort
SDA:   1    -0.418396610467E+02    0.37992E+00    0.00000E+00   512   0.723E+00 0.000E+00
CGA:   2    -0.421488047780E+02   -0.30914E+00   -0.30908E+00   512   0.271E+00 0.979E-03
CGA:   3    -0.422033855893E+02   -0.54581E-01   -0.54428E-01   512   0.538E-01 0.420E-03
CGA:   4    -0.422151447843E+02   -0.11759E-01   -0.11758E-01   512   0.126E-01 0.800E-05
CGA:   5    -0.422181292741E+02   -0.29845E-02   -0.29866E-02   512   0.319E-02 0.128E-05
CGA:   6    -0.422190565005E+02   -0.92723E-03   -0.92725E-03   512   0.106E-02-0.127E-05
CGA:   7    -0.422193947000E+02   -0.33820E-03   -0.33824E-03   512   0.389E-03 0.362E-06
CGA:   8    -0.422195165958E+02   -0.12190E-03   -0.12194E-03   512   0.114E-03 0.117E-05
CGA:   9    -0.422195530736E+02   -0.36478E-04   -0.36493E-04   512   0.282E-04 0.593E-06
CGA:  10    -0.422195626431E+02   -0.95695E-05   -0.95712E-05   512   0.775E-05 0.118E-06
CGA:  11    -0.422195656331E+02   -0.29900E-05   -0.29930E-05   512   0.269E-05-0.471E-07
CGA:  12    -0.422195667993E+02   -0.11662E-05   -0.11778E-05   512   0.108E-05-0.106E-06
CGA:  13    -0.422195672447E+02   -0.44535E-06   -0.45098E-06   512   0.364E-06-0.531E-07
CGA:  14    -0.422195673843E+02   -0.13967E-06   -0.14133E-06   512   0.989E-07-0.105E-07
CGA:  15    -0.422195674207E+02   -0.36403E-07   -0.37365E-07   512   0.244E-07 0.355E-09
CGA:  16    -0.422195674304E+02   -0.96261E-08   -0.11085E-07   512   0.805E-08-0.328E-08
  15 F= -.42219567E+02 E0= -.42219567E+02  d E =-.991832E-40
       N       E                     dE             d eps       ncg     rms          ort
SDA:   1    -0.420226330620E+02    0.19693E+00    0.00000E+00   512   0.378E+00 0.000E+00
CGA:   2    -0.421874635518E+02   -0.16483E+00   -0.16490E+00   512   0.125E+00-0.793E-03
CGA:   3    -0.422130894145E+02   -0.25626E-01   -0.25683E-01   512   0.257E-01-0.108E-03
CGA:   4    -0.422183646020E+02   -0.52752E-02   -0.52762E-02   512   0.529E-02-0.558E-05
CGA:   5    -0.422196413718E+02   -0.12768E-02   -0.12769E-02   512   0.122E-02-0.345E-06
CGA:   6    -0.422199743980E+02   -0.33303E-03   -0.33314E-03   512   0.379E-03 0.414E-06
CGA:   7    -0.422200952106E+02   -0.12081E-03   -0.12082E-03   512   0.141E-03-0.104E-06
CGA:   8    -0.422201426163E+02   -0.47406E-04   -0.47411E-04   512   0.459E-04 0.554E-07
CGA:   9    -0.422201578417E+02   -0.15225E-04   -0.15234E-04   512   0.122E-04 0.260E-06
CGA:  10    -0.422201619541E+02   -0.41124E-05   -0.41165E-05   512   0.319E-05 0.149E-06
CGA:  11    -0.422201631235E+02   -0.11694E-05   -0.11696E-05   512   0.920E-06 0.938E-07
CGA:  12    -0.422201635025E+02   -0.37905E-06   -0.37796E-06   512   0.312E-06 0.489E-07
CGA:  13    -0.422201636464E+02   -0.14389E-06   -0.14453E-06   512   0.113E-06 0.663E-08
CGA:  14    -0.422201636963E+02   -0.49857E-07   -0.51188E-07   512   0.357E-07-0.212E-08
CGA:  15    -0.422201637105E+02   -0.14232E-07   -0.15406E-07   512   0.105E-07-0.249E-08
CGA:  16    -0.422201637139E+02   -0.33469E-08   -0.54903E-08   512   0.623E-08-0.431E-08
  16 F= -.42220164E+02 E0= -.42220164E+02  d E =-.812926E-48
       N       E                     dE             d eps       ncg     rms          ort
SDA:   1    -0.418138834232E+02    0.40628E+00    0.00000E+00   512   0.777E+00 0.000E+00
CGA:   2    -0.421602521397E+02   -0.34637E+00   -0.34640E+00   512   0.229E+00-0.309E-03
CGA:   3    -0.422066829239E+02   -0.46431E-01   -0.46351E-01   512   0.480E-01 0.331E-03
CGA:   4    -0.422166910023E+02   -0.10008E-01   -0.10013E-01   512   0.101E-01 0.525E-05
CGA:   5    -0.422191290963E+02   -0.24381E-02   -0.24384E-02   512   0.240E-02-0.283E-05
CGA:   6    -0.422197858346E+02   -0.65674E-03   -0.65673E-03   512   0.773E-03-0.126E-05
CGA:   7    -0.422200362485E+02   -0.25041E-03   -0.25048E-03   512   0.285E-03 0.708E-06
CGA:   8    -0.422201301850E+02   -0.93936E-04   -0.93972E-04   512   0.882E-04 0.700E-06
CGA:   9    -0.422201583124E+02   -0.28127E-04   -0.28145E-04   512   0.218E-04 0.309E-06
CGA:  10    -0.422201654852E+02   -0.71728E-05   -0.71779E-05   512   0.515E-05 0.103E-06
CGA:  11    -0.422201673623E+02   -0.18771E-05   -0.18783E-05   512   0.144E-05-0.379E-07
CGA:  12    -0.422201679472E+02   -0.58491E-06   -0.58877E-06   512   0.515E-06-0.494E-07
CGA:  13    -0.422201681723E+02   -0.22514E-06   -0.22925E-06   512   0.198E-06-0.297E-07
CGA:  14    -0.422201682566E+02   -0.84279E-07   -0.86915E-07   512   0.653E-07-0.131E-07
CGA:  15    -0.422201682814E+02   -0.24773E-07   -0.26164E-07   512   0.174E-07-0.369E-08
CGA:  16    -0.422201682878E+02   -0.64847E-08   -0.87386E-08   512   0.833E-08-0.572E-08
  17 F= -.42220168E+02 E0= -.42220168E+02  d E =-.526130E-46
       N       E                     dE             d eps       ncg     rms          ort
SDA:   1    -0.420134543495E+02    0.20671E+00    0.00000E+00   512   0.397E+00 0.000E+00
CGA:   2    -0.421895268537E+02   -0.17607E+00   -0.17607E+00   512   0.118E+00 0.654E-04
CGA:   3    -0.422132046867E+02   -0.23678E-01   -0.23621E-01   512   0.231E-01 0.173E-03
CGA:   4    -0.422181460537E+02   -0.49414E-02   -0.49423E-02   512   0.516E-02-0.168E-05
CGA:   5    -0.422193566760E+02   -0.12106E-02   -0.12114E-02   512   0.118E-02-0.352E-06
CGA:   6    -0.422196813205E+02   -0.32464E-03   -0.32467E-03   512   0.361E-03-0.334E-06
CGA:   7    -0.422197984212E+02   -0.11710E-03   -0.11712E-03   512   0.131E-03-0.343E-07
CGA:   8    -0.422198406803E+02   -0.42259E-04   -0.42289E-04   512   0.397E-04 0.479E-06
CGA:   9    -0.422198532087E+02   -0.12528E-04   -0.12547E-04   512   0.932E-05 0.301E-06
CGA:  10    -0.422198562340E+02   -0.30253E-05   -0.30308E-05   512   0.203E-05 0.978E-07
CGA:  11    -0.422198569351E+02   -0.70109E-06   -0.70283E-06   512   0.483E-06 0.261E-07
CGA:  12    -0.422198571232E+02   -0.18817E-06   -0.18945E-06   512   0.149E-06-0.941E-08
CGA:  13    -0.422198571865E+02   -0.63255E-07   -0.65335E-07   512   0.585E-07-0.903E-08
CGA:  14    -0.422198572116E+02   -0.25115E-07   -0.26996E-07   512   0.238E-07-0.418E-08
CGA:  15    -0.422198572212E+02   -0.95897E-08   -0.11616E-07   512   0.101E-07-0.478E-08
  18 F= -.42219857E+02 E0= -.42219857E+02  d E =-.479020E-39
       N       E                     dE             d eps       ncg     rms          ort
SDA:   1    -0.418267647892E+02    0.39309E+00    0.00000E+00   512   0.757E+00 0.000E+00
CGA:   2    -0.421572806728E+02   -0.33052E+00   -0.33068E+00   512   0.240E+00-0.283E-02
CGA:   3    -0.422053987592E+02   -0.48118E-01   -0.48294E-01   512   0.517E-01-0.319E-03
CGA:   4    -0.422161885869E+02   -0.10790E-01   -0.10796E-01   512   0.107E-01-0.159E-04
CGA:   5    -0.422187778644E+02   -0.25893E-02   -0.25883E-02   512   0.251E-02-0.334E-05
CGA:   6    -0.422194780953E+02   -0.70023E-03   -0.70031E-03   512   0.795E-03-0.398E-06
CGA:   7    -0.422197327775E+02   -0.25468E-03   -0.25470E-03   512   0.285E-03-0.179E-06
CGA:   8    -0.422198261669E+02   -0.93389E-04   -0.93399E-04   512   0.863E-04 0.209E-07
CGA:   9    -0.422198536933E+02   -0.27526E-04   -0.27544E-04   512   0.206E-04 0.282E-06
CGA:  10    -0.422198604476E+02   -0.67543E-05   -0.67619E-05   512   0.489E-05 0.155E-06
CGA:  11    -0.422198622093E+02   -0.17617E-05   -0.17633E-05   512   0.138E-05 0.775E-07
CGA:  12    -0.422198627699E+02   -0.56059E-06   -0.55979E-06   512   0.471E-06 0.553E-07
CGA:  13    -0.422198629876E+02   -0.21774E-06   -0.21786E-06   512   0.176E-06 0.142E-07
CGA:  14    -0.422198630646E+02   -0.76940E-07   -0.77679E-07   512   0.554E-07 0.596E-08
CGA:  15    -0.422198630871E+02   -0.22501E-07   -0.23598E-07   512   0.159E-07 0.125E-08
CGA:  16    -0.422198630933E+02   -0.61955E-08   -0.79578E-08   512   0.661E-08-0.358E-08
  19 F= -.42219863E+02 E0= -.42219863E+02  d E =-.430162E-54
       N       E                     dE             d eps       ncg     rms          ort
SDA:   1    -0.420243496662E+02    0.19551E+00    0.00000E+00   512   0.376E+00 0.000E+00
CGA:   2    -0.421859268932E+02   -0.16158E+00   -0.16157E+00   512   0.124E+00 0.134E-03
CGA:   3    -0.422123694440E+02   -0.26443E-01   -0.26423E-01   512   0.270E-01 0.657E-04
CGA:   4    -0.422178789528E+02   -0.55095E-02   -0.55095E-02   512   0.569E-02 0.294E-05
CGA:   5    -0.422192526809E+02   -0.13737E-02   -0.13740E-02   512   0.136E-02-0.210E-05
CGA:   6    -0.422196371937E+02   -0.38451E-03   -0.38453E-03   512   0.429E-03-0.693E-06
CGA:   7    -0.422197741436E+02   -0.13695E-03   -0.13697E-03   512   0.150E-03 0.144E-06
CGA:   8    -0.422198226222E+02   -0.48479E-04   -0.48501E-04   512   0.444E-04 0.353E-06
CGA:   9    -0.422198367155E+02   -0.14093E-04   -0.14107E-04   512   0.106E-04 0.227E-06
CGA:  10    -0.422198401989E+02   -0.34834E-05   -0.34879E-05   512   0.255E-05 0.870E-07
CGA:  11    -0.422198411375E+02   -0.93853E-06   -0.93954E-06   512   0.739E-06-0.157E-08
CGA:  12    -0.422198414503E+02   -0.31285E-06   -0.31562E-06   512   0.278E-06-0.242E-07
CGA:  13    -0.422198415717E+02   -0.12139E-06   -0.12387E-06   512   0.106E-06-0.129E-07
CGA:  14    -0.422198416163E+02   -0.44551E-07   -0.46386E-07   512   0.361E-07-0.806E-08
CGA:  15    -0.422198416292E+02   -0.12962E-07   -0.14233E-07   512   0.109E-07-0.367E-08
CGA:  16    -0.422198416322E+02   -0.29504E-08   -0.58412E-08   512   0.969E-08-0.664E-08
  20 F= -.42219842E+02 E0= -.42219842E+02  d E =-.393300E-42
       N       E                     dE             d eps       ncg     rms          ort
SDA:   1    -0.418290104082E+02    0.39083E+00    0.00000E+00   512   0.753E+00 0.000E+00
CGA:   2    -0.421507888065E+02   -0.32178E+00   -0.32178E+00   512   0.249E+00-0.102E-03
CGA:   3    -0.422049244758E+02   -0.54136E-01   -0.54142E-01   512   0.543E-01 0.678E-04
CGA:   4    -0.422158734847E+02   -0.10949E-01   -0.10953E-01   512   0.114E-01 0.306E-05
CGA:   5    -0.422186460285E+02   -0.27725E-02   -0.27733E-02   512   0.273E-02 0.377E-06
CGA:   6    -0.422194271329E+02   -0.78110E-03   -0.78113E-03   512   0.869E-03-0.125E-05
CGA:   7    -0.422197045157E+02   -0.27738E-03   -0.27742E-03   512   0.299E-03 0.262E-06
CGA:   8    -0.422198012129E+02   -0.96697E-04   -0.96741E-04   512   0.858E-04 0.101E-05
CGA:   9    -0.422198284281E+02   -0.27215E-04   -0.27240E-04   512   0.194E-04 0.536E-06
CGA:  10    -0.422198346385E+02   -0.62103E-05   -0.62188E-05   512   0.410E-05 0.201E-06
CGA:  11    -0.422198360404E+02   -0.14019E-05   -0.14037E-05   512   0.924E-06 0.536E-07
CGA:  12    -0.422198363967E+02   -0.35625E-06   -0.35754E-06   512   0.263E-06-0.797E-08
CGA:  13    -0.422198365060E+02   -0.10930E-06   -0.11087E-06   512   0.875E-07-0.585E-08
CGA:  14    -0.422198365434E+02   -0.37457E-07   -0.38666E-07   512   0.310E-07-0.545E-09
CGA:  15    -0.422198365561E+02   -0.12702E-07   -0.14129E-07   512   0.111E-07-0.135E-08
CGA:  16    -0.422198365597E+02   -0.36107E-08   -0.58767E-08   512   0.620E-08-0.378E-08
CGA:  17    -0.422198365088E+02    0.50921E-07   -0.27830E-07   512   0.171E-06-0.265E-07
CGA:  18    -0.422198365506E+02   -0.41815E-07   -0.42889E-07   512   0.185E-07 0.144E-08
CGA:  19    -0.422198365586E+02   -0.79526E-08   -0.85042E-08   512   0.792E-08-0.267E-09
  21 F= -.42219837E+02 E0= -.42219837E+02  d E =-.377457E-51
       N       E                     dE             d eps       ncg     rms          ort
SDA:   1    -0.420340849973E+02    0.18575E+00    0.00000E+00   512   0.351E+00 0.000E+00
CGA:   2    -0.421818015388E+02   -0.14772E+00   -0.14773E+00   512   0.146E+00 0.111E-03
CGA:   3    -0.422121548914E+02   -0.30353E-01   -0.30258E-01   512   0.256E-01 0.550E-03
CGA:   4    -0.422175595481E+02   -0.54047E-02   -0.54036E-02   512   0.601E-02 0.140E-04
CGA:   5    -0.422190190903E+02   -0.14595E-02   -0.14602E-02   512   0.151E-02-0.397E-05
CGA:   6    -0.422194405644E+02   -0.42147E-03   -0.42155E-03   512   0.453E-03-0.809E-06
CGA:   7    -0.422195800660E+02   -0.13950E-03   -0.13965E-03   512   0.151E-03 0.203E-06
CGA:   8    -0.422196286516E+02   -0.48586E-04   -0.48674E-04   512   0.443E-04 0.278E-06
CGA:   9    -0.422196427503E+02   -0.14099E-04   -0.14154E-04   512   0.104E-04 0.224E-06
CGA:  10    -0.422196461028E+02   -0.33525E-05   -0.33740E-05   512   0.230E-05 0.970E-07
CGA:  11    -0.422196468898E+02   -0.78703E-06   -0.79193E-06   512   0.537E-06 0.235E-07
CGA:  12    -0.422196470917E+02   -0.20182E-06   -0.20288E-06   512   0.148E-06 0.316E-08
CGA:  13    -0.422196471546E+02   -0.62939E-07   -0.63435E-07   512   0.513E-07-0.303E-08
CGA:  14    -0.422196471764E+02   -0.21784E-07   -0.22605E-07   512   0.186E-07-0.958E-09
CGA:  15    -0.422196471851E+02   -0.87311E-08   -0.10033E-07   512   0.112E-07-0.534E-08
  22 F= -.42219647E+02 E0= -.42219647E+02  d E =-.142478E-27
       N       E                     dE             d eps       ncg     rms          ort
SDA:   1    -0.418341159058E+02    0.38553E+00    0.00000E+00   512   0.738E+00 0.000E+00
CGA:   2    -0.421468275291E+02   -0.31271E+00   -0.31255E+00   512   0.288E+00-0.123E-02
CGA:   3    -0.422052350859E+02   -0.58408E-01   -0.58711E-01   512   0.510E-01-0.871E-03
CGA:   4    -0.422157897434E+02   -0.10555E-01   -0.10563E-01   512   0.116E-01-0.431E-04
CGA:   5    -0.422185743667E+02   -0.27846E-02   -0.27835E-02   512   0.273E-02-0.135E-05
CGA:   6    -0.422193220514E+02   -0.74768E-03   -0.74772E-03   512   0.783E-03-0.116E-05
CGA:   7    -0.422195626867E+02   -0.24064E-03   -0.24061E-03   512   0.264E-03-0.707E-06
CGA:   8    -0.422196503668E+02   -0.87680E-04   -0.87688E-04   512   0.834E-04-0.700E-07
CGA:   9    -0.422196776372E+02   -0.27270E-04   -0.27287E-04   512   0.210E-04 0.120E-06
CGA:  10    -0.422196844969E+02   -0.68596E-05   -0.68731E-05   512   0.474E-05 0.122E-06
CGA:  11    -0.422196861166E+02   -0.16197E-05   -0.16254E-05   512   0.110E-05 0.619E-07
CGA:  12    -0.422196865243E+02   -0.40772E-06   -0.40986E-06   512   0.296E-06 0.279E-07
CGA:  13    -0.422196866489E+02   -0.12453E-06   -0.12546E-06   512   0.984E-07 0.744E-08
CGA:  14    -0.422196866932E+02   -0.44371E-07   -0.45274E-07   512   0.355E-07 0.131E-08
CGA:  15    -0.422196867059E+02   -0.12622E-07   -0.13631E-07   512   0.109E-07 0.467E-08
CGA:  16    -0.422196867105E+02   -0.45984E-08   -0.62174E-08   512   0.603E-08-0.266E-08
  23 F= -.42219687E+02 E0= -.42219687E+02  d E =-.193004E-66
       N       E                     dE             d eps       ncg     rms          ort
SDA:   1    -0.420204577846E+02    0.19923E+00    0.00000E+00   512   0.384E+00 0.000E+00
CGA:   2    -0.421819949783E+02   -0.16154E+00   -0.16153E+00   512   0.146E+00 0.417E-03
CGA:   3    -0.422122531033E+02   -0.30258E-01   -0.30196E-01   512   0.275E-01 0.212E-03
CGA:   4    -0.422178579933E+02   -0.56049E-02   -0.56038E-02   512   0.606E-02 0.851E-05
CGA:   5    -0.422192871910E+02   -0.14292E-02   -0.14298E-02   512   0.141E-02-0.185E-05
CGA:   6    -0.422196715564E+02   -0.38437E-03   -0.38442E-03   512   0.405E-03-0.457E-06
CGA:   7    -0.422197967668E+02   -0.12521E-03   -0.12529E-03   512   0.140E-03 0.837E-06
CGA:   8    -0.422198425504E+02   -0.45784E-04   -0.45839E-04   512   0.446E-04 0.976E-06
CGA:   9    -0.422198570195E+02   -0.14469E-04   -0.14503E-04   512   0.112E-04 0.607E-06
CGA:  10    -0.422198606833E+02   -0.36638E-05   -0.36749E-05   512   0.255E-05 0.208E-06
CGA:  11    -0.422198615758E+02   -0.89257E-06   -0.89428E-06   512   0.621E-06 0.327E-07
CGA:  12    -0.422198618185E+02   -0.24268E-06   -0.24395E-06   512   0.187E-06-0.192E-07
CGA:  13    -0.422198618968E+02   -0.78348E-07   -0.80584E-07   512   0.733E-07-0.171E-07
CGA:  14    -0.422198619254E+02   -0.28551E-07   -0.29964E-07   512   0.281E-07-0.495E-08
CGA:  15    -0.422198619367E+02   -0.11290E-07   -0.14398E-07   512   0.195E-07-0.108E-07
CGA:  16    -0.422198619398E+02   -0.31578E-08   -0.37187E-08   512   0.615E-08-0.859E-09
  24 F= -.42219862E+02 E0= -.42219862E+02  d E =-.236865E-42
       N       E                     dE             d eps       ncg     rms          ort
SDA:   1    -0.418173309443E+02    0.40253E+00    0.00000E+00   512   0.780E+00 0.000E+00
CGA:   2    -0.421491479095E+02   -0.33182E+00   -0.33193E+00   512   0.259E+00-0.169E-02
CGA:   3    -0.422046148360E+02   -0.55467E-01   -0.55516E-01   512   0.568E-01-0.195E-04
CGA:   4    -0.422160273476E+02   -0.11413E-01   -0.11417E-01   512   0.114E-01-0.151E-04
CGA:   5    -0.422187713986E+02   -0.27441E-02   -0.27439E-02   512   0.259E-02-0.352E-05
CGA:   6    -0.422194920265E+02   -0.72063E-03   -0.72066E-03   512   0.787E-03-0.780E-06
CGA:   7    -0.422197410697E+02   -0.24904E-03   -0.24906E-03   512   0.271E-03-0.200E-06
CGA:   8    -0.422198307243E+02   -0.89655E-04   -0.89665E-04   512   0.820E-04 0.113E-06
CGA:   9    -0.422198572654E+02   -0.26541E-04   -0.26554E-04   512   0.194E-04 0.318E-06
CGA:  10    -0.422198635015E+02   -0.62361E-05   -0.62439E-05   512   0.408E-05 0.190E-06
CGA:  11    -0.422198648683E+02   -0.13668E-05   -0.13691E-05   512   0.871E-06 0.723E-07
CGA:  12    -0.422198651838E+02   -0.31552E-06   -0.31623E-06   512   0.214E-06 0.375E-07
CGA:  13    -0.422198652730E+02   -0.89211E-07   -0.89435E-07   512   0.664E-07 0.146E-07
CGA:  14    -0.422198653044E+02   -0.31388E-07   -0.32082E-07   512   0.254E-07 0.437E-08
CGA:  15    -0.422198653151E+02   -0.10725E-07   -0.11503E-07   512   0.873E-08 0.289E-08
CGA:  16    -0.422198653187E+02   -0.35616E-08   -0.50603E-08   512   0.428E-08-0.146E-08
CGA:  17    -0.422198652822E+02    0.36449E-07   -0.19927E-07   512   0.110E-06-0.196E-07
CGA:  18    -0.422198653113E+02   -0.29049E-07   -0.29851E-07   512   0.125E-07 0.824E-09
CGA:  19    -0.422198653182E+02   -0.68976E-08   -0.76186E-08   512   0.895E-08-0.241E-08
  25 F= -.42219865E+02 E0= -.42219865E+02  d E =-.281905E-49
