       N       E                     dE             d eps       ncg     rms          ort
DAV:   1     0.166636237162E+03    0.16664E+03   -0.96332E+03   512   0.452E+01
DAV:   2    -0.332370794019E+02   -0.19987E+03   -0.19987E+03   512   0.501E+00
DAV:   3    -0.352238732870E+02   -0.19868E+01   -0.19868E+01   512   0.115E+00
DAV:   4    -0.352309344034E+02   -0.70611E-02   -0.70611E-02   512   0.794E-02
DAV:   5    -0.352309344676E+02   -0.64240E-07   -0.78736E-07   512   0.271E-04
SDA:   6    -0.249067794788E+02    0.10324E+02   -0.78736E-07   512   0.250E+02 0.000E+00
CGA:   7    -0.294699140629E+02   -0.45631E+01   -0.45580E+01   512   0.249E+01 0.243E+00
CGA:   8    -0.303339272941E+02   -0.86401E+00   -0.86103E+00   512   0.143E+01-0.183E-01
CGA:   9    -0.307213045341E+02   -0.38738E+00   -0.39409E+00   512   0.445E+00-0.712E-01
CGA:  10    -0.308279116510E+02   -0.10661E+00   -0.10679E+00   512   0.103E+00-0.215E-02
CGA:  11    -0.308550164943E+02   -0.27105E-01   -0.27078E-01   512   0.265E-01 0.394E-03
CGA:  12    -0.308628859460E+02   -0.78695E-02   -0.78672E-02   512   0.788E-02 0.212E-05
CGA:  13    -0.308653691693E+02   -0.24832E-02   -0.24837E-02   512   0.237E-02-0.765E-05
CGA:  14    -0.308661414453E+02   -0.77228E-03   -0.77320E-03   512   0.705E-03-0.108E-04
CGA:  15    -0.308663767844E+02   -0.23534E-03   -0.23574E-03   512   0.201E-03-0.380E-05
CGA:  16    -0.308664437135E+02   -0.66929E-04   -0.66832E-04   512   0.533E-04 0.928E-06
CGA:  17    -0.308664618647E+02   -0.18151E-04   -0.18034E-04   512   0.138E-04 0.118E-05
CGA:  18    -0.308664668642E+02   -0.49995E-05   -0.49391E-05   512   0.360E-05 0.555E-06
CGA:  19    -0.308664682558E+02   -0.13915E-05   -0.13873E-05   512   0.933E-06 0.235E-07
CGA:  20    -0.308664686376E+02   -0.38180E-06   -0.39581E-06   512   0.285E-06-0.934E-07
CGA:  21    -0.308664687375E+02   -0.99927E-07   -0.10002E-06   512   0.784E-07-0.110E-07
CGA:  22    -0.308664687676E+02   -0.30062E-07   -0.28463E-07   512   0.241E-07 0.377E-08
CGA:  23    -0.308664687730E+02   -0.54833E-08   -0.54134E-08   512   0.926E-08 0.112E-07
   1 F= -.30866469E+02 E0= -.30866469E+02  d E =-.251633E-86
 Found    18 degrees of freedom:
       N       E                     dE             d eps       ncg     rms          ort
SDA:   1    -0.308367834067E+02    0.29685E-01    0.00000E+00   512   0.512E-01 0.000E+00
CGA:   2    -0.308579642264E+02   -0.21181E-01   -0.21180E-01   512   0.259E-01-0.683E-05
CGA:   3    -0.308633918514E+02   -0.54276E-02   -0.54260E-02   512   0.360E-02-0.156E-04
CGA:   4    -0.308641562706E+02   -0.76442E-03   -0.76445E-03   512   0.743E-03-0.169E-05
CGA:   5    -0.308643334565E+02   -0.17719E-03   -0.17723E-03   512   0.175E-03 0.142E-05
CGA:   6    -0.308643828315E+02   -0.49375E-04   -0.49364E-04   512   0.506E-04 0.598E-06
CGA:   7    -0.308643986045E+02   -0.15773E-04   -0.15758E-04   512   0.162E-04 0.320E-06
CGA:   8    -0.308644039340E+02   -0.53295E-05   -0.53190E-05   512   0.479E-05 0.158E-06
CGA:   9    -0.308644055608E+02   -0.16268E-05   -0.16245E-05   512   0.122E-05 0.192E-07
CGA:  10    -0.308644059690E+02   -0.40814E-06   -0.40536E-06   512   0.271E-06 0.337E-07
CGA:  11    -0.308644060668E+02   -0.97792E-07   -0.96278E-07   512   0.619E-07 0.749E-08
CGA:  12    -0.308644060882E+02   -0.21419E-07   -0.20167E-07   512   0.129E-07 0.920E-08
CGA:  13    -0.308644060930E+02   -0.48303E-08   -0.41171E-08   512   0.342E-08 0.442E-08
   2 F= -.30864406E+02 E0= -.30864406E+02  d E =-.273682E-81
       N       E                     dE             d eps       ncg     rms          ort
SDA:   1    -0.307544334018E+02    0.10997E+00    0.00000E+00   512   0.205E+00 0.000E+00
CGA:   2    -0.308376155362E+02   -0.83182E-01   -0.83210E-01   512   0.107E+00-0.219E-03
CGA:   3    -0.308601345915E+02   -0.22519E-01   -0.22528E-01   512   0.147E-01 0.306E-04
CGA:   4    -0.308632884426E+02   -0.31539E-02   -0.31543E-02   512   0.309E-02 0.516E-05
CGA:   5    -0.308640433261E+02   -0.75488E-03   -0.75490E-03   512   0.759E-03-0.124E-05
CGA:   6    -0.308642647612E+02   -0.22144E-03   -0.22144E-03   512   0.231E-03-0.635E-06
CGA:   7    -0.308643384348E+02   -0.73674E-04   -0.73685E-04   512   0.762E-04-0.340E-06
CGA:   8    -0.308643636788E+02   -0.25244E-04   -0.25250E-04   512   0.227E-04-0.155E-06
CGA:   9    -0.308643712558E+02   -0.75770E-05   -0.75751E-05   512   0.562E-05 0.981E-08
CGA:  10    -0.308643731882E+02   -0.19324E-05   -0.19330E-05   512   0.131E-05-0.320E-07
CGA:  11    -0.308643736486E+02   -0.46045E-06   -0.45829E-06   512   0.297E-06 0.161E-07
CGA:  12    -0.308643737633E+02   -0.11469E-06   -0.11368E-06   512   0.736E-07-0.222E-08
CGA:  13    -0.308643737898E+02   -0.26513E-07   -0.25113E-07   512   0.151E-07 0.750E-08
CGA:  14    -0.308643737945E+02   -0.46948E-08   -0.41904E-08   512   0.434E-08 0.639E-08
   3 F= -.30864374E+02 E0= -.30864374E+02  d E =-.407705E-60
       N       E                     dE             d eps       ncg     rms          ort
SDA:   1    -0.308096274641E+02    0.54746E-01    0.00000E+00   512   0.102E+00 0.000E+00
CGA:   2    -0.308522614155E+02   -0.42634E-01   -0.42626E-01   512   0.506E-01 0.314E-04
CGA:   3    -0.308626133312E+02   -0.10352E-01   -0.10345E-01   512   0.726E-02-0.189E-04
CGA:   4    -0.308641960800E+02   -0.15827E-02   -0.15829E-02   512   0.156E-02-0.251E-05
CGA:   5    -0.308645617475E+02   -0.36567E-03   -0.36584E-03   512   0.364E-03 0.260E-05
CGA:   6    -0.308646649918E+02   -0.10324E-03   -0.10325E-03   512   0.104E-03 0.147E-05
CGA:   7    -0.308646969699E+02   -0.31978E-04   -0.31965E-04   512   0.326E-04 0.539E-06
CGA:   8    -0.308647076499E+02   -0.10680E-04   -0.10672E-04   512   0.943E-05 0.177E-06
CGA:   9    -0.308647108738E+02   -0.32239E-05   -0.32242E-05   512   0.245E-05-0.280E-07
CGA:  10    -0.308647117144E+02   -0.84063E-06   -0.83929E-06   512   0.588E-06 0.679E-08
CGA:  11    -0.308647119247E+02   -0.21029E-06   -0.20845E-06   512   0.141E-06 0.145E-07
CGA:  12    -0.308647119752E+02   -0.50480E-07   -0.48802E-07   512   0.326E-07 0.184E-07
CGA:  13    -0.308647119867E+02   -0.11526E-07   -0.10829E-07   512   0.874E-08 0.105E-07
CGA:  14    -0.308647119910E+02   -0.42673E-08   -0.34819E-08   512   0.279E-08 0.330E-08
   4 F= -.30864712E+02 E0= -.30864712E+02  d E =-.156303E-51
       N       E                     dE             d eps       ncg     rms          ort
SDA:   1    -0.307547971188E+02    0.10991E+00    0.00000E+00   512   0.202E+00 0.000E+00
CGA:   2    -0.308440393751E+02   -0.89242E-01   -0.89320E-01   512   0.796E-01-0.447E-03
CGA:   3    -0.308608864806E+02   -0.16847E-01   -0.16863E-01   512   0.138E-01 0.913E-05
CGA:   4    -0.308638087220E+02   -0.29222E-02   -0.29221E-02   512   0.265E-02-0.558E-06
CGA:   5    -0.308644382200E+02   -0.62950E-03   -0.62941E-03   512   0.641E-03-0.276E-05
CGA:   6    -0.308646157879E+02   -0.17757E-03   -0.17756E-03   512   0.183E-03-0.114E-05
CGA:   7    -0.308646742753E+02   -0.58487E-04   -0.58498E-04   512   0.606E-04-0.386E-06
CGA:   8    -0.308646943780E+02   -0.20103E-04   -0.20101E-04   512   0.186E-04 0.217E-08
CGA:   9    -0.308647006138E+02   -0.62358E-05   -0.62258E-05   512   0.484E-05 0.223E-06
CGA:  10    -0.308647022867E+02   -0.16729E-05   -0.16697E-05   512   0.120E-05 0.477E-07
CGA:  11    -0.308647027110E+02   -0.42433E-06   -0.42207E-06   512   0.285E-06 0.229E-07
CGA:  12    -0.308647028248E+02   -0.11376E-06   -0.11356E-06   512   0.764E-07-0.108E-07
CGA:  13    -0.308647028545E+02   -0.29669E-07   -0.28721E-07   512   0.179E-07-0.197E-08
CGA:  14    -0.308647028606E+02   -0.60909E-08   -0.52658E-08   512   0.393E-08 0.415E-08
   5 F= -.30864703E+02 E0= -.30864703E+02  d E =-.716119E-72
       N       E                     dE             d eps       ncg     rms          ort
SDA:   1    -0.308154181985E+02    0.49285E-01    0.00000E+00   512   0.903E-01 0.000E+00
CGA:   2    -0.308576928825E+02   -0.42275E-01   -0.42297E-01   512   0.262E-01-0.120E-03
CGA:   3    -0.308638564205E+02   -0.61635E-02   -0.61641E-02   512   0.503E-02-0.697E-06
CGA:   4    -0.308648385503E+02   -0.98213E-03   -0.98226E-03   512   0.106E-02-0.104E-06
CGA:   5    -0.308650981522E+02   -0.25960E-03   -0.25963E-03   512   0.240E-03 0.123E-06
CGA:   6    -0.308651649995E+02   -0.66847E-04   -0.66857E-04   512   0.735E-04 0.345E-06
CGA:   7    -0.308651875718E+02   -0.22572E-04   -0.22571E-04   512   0.225E-04 0.288E-07
CGA:   8    -0.308651949599E+02   -0.73881E-05   -0.73872E-05   512   0.634E-05-0.887E-08
CGA:   9    -0.308651970008E+02   -0.20409E-05   -0.20391E-05   512   0.151E-05 0.364E-07
CGA:  10    -0.308651975116E+02   -0.51079E-06   -0.50979E-06   512   0.358E-06-0.212E-08
CGA:  11    -0.308651976338E+02   -0.12229E-06   -0.12075E-06   512   0.846E-07 0.163E-07
CGA:  12    -0.308651976668E+02   -0.33003E-07   -0.31607E-07   512   0.215E-07 0.701E-08
CGA:  13    -0.308651976750E+02   -0.81018E-08   -0.71997E-08   512   0.523E-08 0.579E-08
   6 F= -.30865198E+02 E0= -.30865198E+02  d E =-.529712E-66
       N       E                     dE             d eps       ncg     rms          ort
SDA:   1    -0.307604953281E+02    0.10470E+00    0.00000E+00   512   0.190E+00 0.000E+00
CGA:   2    -0.308478229497E+02   -0.87328E-01   -0.87350E-01   512   0.641E-01-0.174E-03
CGA:   3    -0.308618424076E+02   -0.14019E-01   -0.14009E-01   512   0.122E-01-0.172E-04
CGA:   4    -0.308643614782E+02   -0.25191E-02   -0.25199E-02   512   0.241E-02 0.494E-06
CGA:   5    -0.308649489564E+02   -0.58748E-03   -0.58770E-03   512   0.612E-03 0.253E-05
CGA:   6    -0.308651159678E+02   -0.16701E-03   -0.16704E-03   512   0.181E-03 0.970E-06
CGA:   7    -0.308651733217E+02   -0.57354E-04   -0.57343E-04   512   0.571E-04 0.551E-06
CGA:   8    -0.308651920168E+02   -0.18695E-04   -0.18691E-04   512   0.169E-04 0.109E-06
CGA:   9    -0.308651975671E+02   -0.55503E-05   -0.55522E-05   512   0.430E-05-0.104E-06
CGA:  10    -0.308651990066E+02   -0.14396E-05   -0.14375E-05   512   0.104E-05 0.311E-07
CGA:  11    -0.308651993771E+02   -0.37048E-06   -0.36864E-06   512   0.265E-06 0.151E-07
CGA:  12    -0.308651994730E+02   -0.95873E-07   -0.93806E-07   512   0.626E-07 0.246E-07
CGA:  13    -0.308651994969E+02   -0.23962E-07   -0.22608E-07   512   0.156E-07 0.132E-07
CGA:  14    -0.308651995045E+02   -0.76043E-08   -0.65329E-08   512   0.422E-08 0.326E-08
   7 F= -.30865200E+02 E0= -.30865200E+02  d E =-.497563E-49
       N       E                     dE             d eps       ncg     rms          ort
SDA:   1    -0.307290404910E+02    0.13616E+00    0.00000E+00   512   0.269E+00 0.000E+00
CGA:   2    -0.308396869348E+02   -0.11065E+00   -0.11068E+00   512   0.946E-01-0.306E-03
CGA:   3    -0.308601493431E+02   -0.20462E-01   -0.20484E-01   512   0.189E-01 0.461E-05
CGA:   4    -0.308642128537E+02   -0.40635E-02   -0.40628E-02   512   0.351E-02-0.501E-05
CGA:   5    -0.308650852755E+02   -0.87242E-03   -0.87241E-03   512   0.805E-03-0.134E-05
CGA:   6    -0.308653100665E+02   -0.22479E-03   -0.22481E-03   512   0.229E-03 0.287E-06
CGA:   7    -0.308653866222E+02   -0.76556E-04   -0.76573E-04   512   0.762E-04-0.508E-06
CGA:   8    -0.308654130705E+02   -0.26448E-04   -0.26443E-04   512   0.228E-04 0.866E-07
CGA:   9    -0.308654206319E+02   -0.75614E-05   -0.75545E-05   512   0.534E-05 0.211E-06
CGA:  10    -0.308654224459E+02   -0.18140E-05   -0.18126E-05   512   0.116E-05 0.139E-07
CGA:  11    -0.308654228306E+02   -0.38467E-06   -0.38254E-06   512   0.239E-06 0.561E-07
CGA:  12    -0.308654229226E+02   -0.91954E-07   -0.90348E-07   512   0.585E-07 0.120E-07
CGA:  13    -0.308654229463E+02   -0.23707E-07   -0.22340E-07   512   0.138E-07 0.757E-08
CGA:  14    -0.308654229515E+02   -0.52260E-08   -0.45360E-08   512   0.396E-08 0.544E-08
   8 F= -.30865423E+02 E0= -.30865423E+02  d E =-.844467E-74
       N       E                     dE             d eps       ncg     rms          ort
SDA:   1    -0.304571141604E+02    0.40831E+00    0.00000E+00   512   0.794E+00 0.000E+00
CGA:   2    -0.307925528997E+02   -0.33544E+00   -0.33528E+00   512   0.270E+00 0.123E-02
CGA:   3    -0.308508286787E+02   -0.58276E-01   -0.58171E-01   512   0.523E-01 0.186E-04
CGA:   4    -0.308619750495E+02   -0.11146E-01   -0.11151E-01   512   0.977E-02 0.211E-04
CGA:   5    -0.308644155602E+02   -0.24405E-02   -0.24410E-02   512   0.229E-02 0.249E-05
CGA:   6    -0.308650672511E+02   -0.65169E-03   -0.65167E-03   512   0.681E-03-0.233E-05
CGA:   7    -0.308652987048E+02   -0.23145E-03   -0.23138E-03   512   0.234E-03 0.153E-05
CGA:   8    -0.308653806409E+02   -0.81936E-04   -0.81878E-04   512   0.695E-04 0.113E-05
CGA:   9    -0.308654036464E+02   -0.23005E-04   -0.22994E-04   512   0.159E-04 0.373E-06
CGA:  10    -0.308654089069E+02   -0.52605E-05   -0.52539E-05   512   0.326E-05 0.240E-06
CGA:  11    -0.308654100730E+02   -0.11662E-05   -0.11678E-05   512   0.724E-06-0.588E-07
CGA:  12    -0.308654103387E+02   -0.26564E-06   -0.26618E-06   512   0.173E-06-0.253E-07
CGA:  13    -0.308654104078E+02   -0.69062E-07   -0.68789E-07   512   0.442E-07-0.882E-08
CGA:  14    -0.308654104260E+02   -0.18264E-07   -0.16759E-07   512   0.103E-07 0.365E-08
CGA:  15    -0.308654104305E+02   -0.44465E-08   -0.35734E-08   512   0.275E-08 0.333E-08
   9 F= -.30865410E+02 E0= -.30865410E+02  d E =-.173602E-40
       N       E                     dE             d eps       ncg     rms          ort
SDA:   1    -0.306693064590E+02    0.19610E+00    0.00000E+00   512   0.381E+00 0.000E+00
CGA:   2    -0.308293853190E+02   -0.16008E+00   -0.16024E+00   512   0.133E+00-0.117E-02
CGA:   3    -0.308582018677E+02   -0.28817E-01   -0.28857E-01   512   0.261E-01 0.129E-04
CGA:   4    -0.308638264699E+02   -0.56246E-02   -0.56240E-02   512   0.504E-02-0.785E-05
CGA:   5    -0.308650875018E+02   -0.12610E-02   -0.12610E-02   512   0.113E-02-0.967E-06
CGA:   6    -0.308654146336E+02   -0.32713E-03   -0.32716E-03   512   0.336E-03 0.994E-06
CGA:   7    -0.308655273972E+02   -0.11276E-03   -0.11278E-03   512   0.113E-03-0.543E-06
CGA:   8    -0.308655670850E+02   -0.39688E-04   -0.39683E-04   512   0.322E-04 0.942E-07
CGA:   9    -0.308655777890E+02   -0.10704E-04   -0.10698E-04   512   0.729E-05 0.243E-06
CGA:  10    -0.308655802306E+02   -0.24416E-05   -0.24400E-05   512   0.156E-05 0.340E-07
CGA:  11    -0.308655807484E+02   -0.51786E-06   -0.51566E-06   512   0.316E-06 0.806E-07
CGA:  12    -0.308655808691E+02   -0.12067E-06   -0.11873E-06   512   0.754E-07 0.222E-07
CGA:  13    -0.308655809000E+02   -0.30885E-07   -0.29488E-07   512   0.182E-07 0.870E-08
CGA:  14    -0.308655809073E+02   -0.72741E-08   -0.64704E-08   512   0.457E-08 0.523E-08
  10 F= -.30865581E+02 E0= -.30865581E+02  d E =-.575576E-75
       N       E                     dE             d eps       ncg     rms          ort
SDA:   1    -0.304703639318E+02    0.39522E+00    0.00000E+00   512   0.765E+00 0.000E+00
CGA:   2    -0.307948468432E+02   -0.32448E+00   -0.32439E+00   512   0.264E+00 0.886E-03
CGA:   3    -0.308502344722E+02   -0.55388E-01   -0.55274E-01   512   0.522E-01 0.740E-04
CGA:   4    -0.308618920476E+02   -0.11658E-01   -0.11662E-01   512   0.103E-01 0.134E-04
CGA:   5    -0.308644371872E+02   -0.25451E-02   -0.25460E-02   512   0.256E-02 0.395E-05
CGA:   6    -0.308651865342E+02   -0.74935E-03   -0.74932E-03   512   0.787E-03-0.266E-05
CGA:   7    -0.308654576292E+02   -0.27109E-03   -0.27103E-03   512   0.264E-03 0.122E-05
CGA:   8    -0.308655462427E+02   -0.88614E-04   -0.88583E-04   512   0.708E-04 0.106E-05
CGA:   9    -0.308655688935E+02   -0.22651E-04   -0.22647E-04   512   0.151E-04 0.255E-06
CGA:  10    -0.308655737594E+02   -0.48659E-05   -0.48626E-05   512   0.306E-05 0.194E-06
CGA:  11    -0.308655748608E+02   -0.11015E-05   -0.11021E-05   512   0.706E-06-0.399E-07
CGA:  12    -0.308655751288E+02   -0.26796E-06   -0.26810E-06   512   0.181E-06-0.186E-07
CGA:  13    -0.308655752017E+02   -0.72911E-07   -0.71927E-07   512   0.443E-07-0.211E-08
CGA:  14    -0.308655752196E+02   -0.17864E-07   -0.16387E-07   512   0.960E-08 0.634E-08
CGA:  15    -0.308655752231E+02   -0.35589E-08   -0.30187E-08   512   0.290E-08 0.425E-08
  11 F= -.30865575E+02 E0= -.30865575E+02  d E =-.858050E-39
       N       E                     dE             d eps       ncg     rms          ort
SDA:   1    -0.306746744804E+02    0.19090E+00    0.00000E+00   512   0.370E+00 0.000E+00
CGA:   2    -0.308364874498E+02   -0.16181E+00   -0.16191E+00   512   0.107E+00-0.548E-03
CGA:   3    -0.308588114732E+02   -0.22324E-01   -0.22316E-01   512   0.242E-01 0.207E-04
CGA:   4    -0.308640764803E+02   -0.52650E-02   -0.52662E-02   512   0.457E-02 0.301E-06
CGA:   5    -0.308652612084E+02   -0.11847E-02   -0.11849E-02   512   0.117E-02 0.336E-06
CGA:   6    -0.308656144768E+02   -0.35327E-03   -0.35327E-03   512   0.388E-03-0.871E-06
CGA:   7    -0.308657451109E+02   -0.13063E-03   -0.13063E-03   512   0.122E-03 0.154E-06
CGA:   8    -0.308657847722E+02   -0.39661E-04   -0.39656E-04   512   0.287E-04 0.290E-06
CGA:   9    -0.308657937243E+02   -0.89521E-05   -0.89512E-05   512   0.547E-05 0.100E-06
CGA:  10    -0.308657954479E+02   -0.17236E-05   -0.17224E-05   512   0.988E-06 0.653E-07
CGA:  11    -0.308657957934E+02   -0.34558E-06   -0.34467E-06   512   0.204E-06-0.308E-08
CGA:  12    -0.308657958656E+02   -0.72204E-07   -0.70921E-07   512   0.439E-07 0.799E-08
CGA:  13    -0.308657958846E+02   -0.18988E-07   -0.17765E-07   512   0.105E-07 0.263E-08
CGA:  14    -0.308657958881E+02   -0.35097E-08   -0.29904E-08   512   0.291E-08 0.434E-08
  12 F= -.30865796E+02 E0= -.30865796E+02  d E =-.800891E-42
       N       E                     dE             d eps       ncg     rms          ort
SDA:   1    -0.304746778576E+02    0.39112E+00    0.00000E+00   512   0.761E+00 0.000E+00
CGA:   2    -0.308020272775E+02   -0.32735E+00   -0.32791E+00   512   0.234E+00-0.336E-02
CGA:   3    -0.308516728168E+02   -0.49646E-01   -0.49695E-01   512   0.501E-01 0.705E-04
CGA:   4    -0.308624261609E+02   -0.10753E-01   -0.10755E-01   512   0.938E-02-0.595E-05
CGA:   5    -0.308648194057E+02   -0.23932E-02   -0.23932E-02   512   0.217E-02-0.225E-05
CGA:   6    -0.308654660867E+02   -0.64668E-03   -0.64668E-03   512   0.679E-03-0.468E-06
CGA:   7    -0.308656950584E+02   -0.22897E-03   -0.22899E-03   512   0.227E-03-0.545E-06
CGA:   8    -0.308657714890E+02   -0.76431E-04   -0.76414E-04   512   0.582E-04 0.458E-06
CGA:   9    -0.308657904497E+02   -0.18961E-04   -0.18953E-04   512   0.119E-04 0.351E-06
CGA:  10    -0.308657943388E+02   -0.38891E-05   -0.38863E-05   512   0.233E-05 0.860E-07
CGA:  11    -0.308657951456E+02   -0.80681E-06   -0.80360E-06   512   0.468E-06 0.587E-07
CGA:  12    -0.308657953283E+02   -0.18276E-06   -0.18040E-06   512   0.113E-06 0.173E-07
CGA:  13    -0.308657953735E+02   -0.45172E-07   -0.43331E-07   512   0.262E-07 0.106E-07
CGA:  14    -0.308657953836E+02   -0.10084E-07   -0.90386E-08   512   0.645E-08 0.788E-08
CGA:  15    -0.308657953854E+02   -0.17826E-08   -0.16688E-08   512   0.256E-08 0.445E-08
  13 F= -.30865795E+02 E0= -.30865795E+02  d E =-.375008E-71
       N       E                     dE             d eps       ncg     rms          ort
SDA:   1    -0.307126190508E+02    0.15318E+00    0.00000E+00   512   0.288E+00 0.000E+00
CGA:   2    -0.308363466043E+02   -0.12373E+00   -0.12368E+00   512   0.101E+00 0.258E-03
CGA:   3    -0.308589705750E+02   -0.22624E-01   -0.22618E-01   512   0.181E-01 0.263E-04
CGA:   4    -0.308628931781E+02   -0.39226E-02   -0.39231E-02   512   0.394E-02 0.414E-05
CGA:   5    -0.308638772721E+02   -0.98409E-03   -0.98407E-03   512   0.916E-03-0.292E-05
CGA:   6    -0.308641561793E+02   -0.27891E-03   -0.27891E-03   512   0.283E-03-0.818E-06
CGA:   7    -0.308642489990E+02   -0.92820E-04   -0.92803E-04   512   0.900E-04 0.452E-06
CGA:   8    -0.308642785522E+02   -0.29553E-04   -0.29542E-04   512   0.227E-04 0.316E-06
CGA:   9    -0.308642860239E+02   -0.74717E-05   -0.74646E-05   512   0.487E-05 0.208E-06
CGA:  10    -0.308642876680E+02   -0.16441E-05   -0.16406E-05   512   0.105E-05 0.797E-07
CGA:  11    -0.308642880563E+02   -0.38831E-06   -0.38800E-06   512   0.241E-06-0.105E-07
CGA:  12    -0.308642881456E+02   -0.89278E-07   -0.87692E-07   512   0.526E-07 0.881E-08
CGA:  13    -0.308642881663E+02   -0.20702E-07   -0.19350E-07   512   0.118E-07 0.654E-08
CGA:  14    -0.308642881703E+02   -0.39363E-08   -0.34454E-08   512   0.348E-08 0.522E-08
  14 F= -.30864288E+02 E0= -.30864288E+02  d E =-.949488E-40
       N       E                     dE             d eps       ncg     rms          ort
SDA:   1    -0.306434929075E+02    0.22080E+00    0.00000E+00   512   0.408E+00 0.000E+00
CGA:   2    -0.308191083288E+02   -0.17562E+00   -0.17561E+00   512   0.166E+00-0.970E-04
CGA:   3    -0.308573511876E+02   -0.38243E-01   -0.38251E-01   512   0.227E-01-0.395E-04
CGA:   4    -0.308626584767E+02   -0.53073E-02   -0.53074E-02   512   0.467E-02-0.465E-05
CGA:   5    -0.308638467794E+02   -0.11883E-02   -0.11885E-02   512   0.114E-02 0.170E-05
CGA:   6    -0.308641768731E+02   -0.33009E-03   -0.33010E-03   512   0.327E-03-0.447E-07
CGA:   7    -0.308642804097E+02   -0.10354E-03   -0.10352E-03   512   0.102E-03 0.588E-06
CGA:   8    -0.308643149384E+02   -0.34529E-04   -0.34515E-04   512   0.296E-04 0.315E-06
CGA:   9    -0.308643250660E+02   -0.10128E-04   -0.10117E-04   512   0.712E-05 0.240E-06
CGA:  10    -0.308643275284E+02   -0.24625E-05   -0.24575E-05   512   0.156E-05 0.999E-07
CGA:  11    -0.308643280823E+02   -0.55387E-06   -0.55149E-06   512   0.331E-06 0.309E-07
CGA:  12    -0.308643282117E+02   -0.12940E-06   -0.12829E-06   512   0.736E-07 0.172E-08
CGA:  13    -0.308643282435E+02   -0.31814E-07   -0.30990E-07   512   0.183E-07-0.302E-08
CGA:  14    -0.308643282509E+02   -0.74015E-08   -0.63699E-08   512   0.383E-08 0.222E-08
  15 F= -.30864328E+02 E0= -.30864328E+02  d E =-.308965E-73
       N       E                     dE             d eps       ncg     rms          ort
SDA:   1    -0.307506373220E+02    0.11369E+00    0.00000E+00   512   0.213E+00 0.000E+00
CGA:   2    -0.308424431749E+02   -0.91806E-01   -0.91844E-01   512   0.792E-01-0.235E-03
CGA:   3    -0.308610690147E+02   -0.18626E-01   -0.18623E-01   512   0.126E-01 0.220E-04
CGA:   4    -0.308639303633E+02   -0.28613E-02   -0.28616E-02   512   0.249E-02 0.603E-06
CGA:   5    -0.308645585980E+02   -0.62823E-03   -0.62822E-03   512   0.601E-03-0.175E-05
CGA:   6    -0.308647349093E+02   -0.17631E-03   -0.17632E-03   512   0.178E-03 0.950E-07
CGA:   7    -0.308647918840E+02   -0.56975E-04   -0.56974E-04   512   0.566E-04-0.509E-07
CGA:   8    -0.308648106246E+02   -0.18741E-04   -0.18736E-04   512   0.155E-04 0.155E-06
CGA:   9    -0.308648158679E+02   -0.52433E-05   -0.52383E-05   512   0.352E-05 0.166E-06
CGA:  10    -0.308648170638E+02   -0.11959E-05   -0.11932E-05   512   0.733E-06 0.797E-07
CGA:  11    -0.308648173182E+02   -0.25437E-06   -0.25268E-06   512   0.149E-06 0.345E-07
CGA:  12    -0.308648173760E+02   -0.57797E-07   -0.56356E-07   512   0.334E-07 0.100E-07
CGA:  13    -0.308648173883E+02   -0.12301E-07   -0.11373E-07   512   0.802E-08 0.847E-08
CGA:  14    -0.308648173917E+02   -0.34024E-08   -0.28027E-08   512   0.257E-08 0.360E-08
  16 F= -.30864817E+02 E0= -.30864817E+02  d E =-.716834E-54
       N       E                     dE             d eps       ncg     rms          ort
SDA:   1    -0.306317821073E+02    0.23304E+00    0.00000E+00   512   0.437E+00 0.000E+00
CGA:   2    -0.308208106202E+02   -0.18903E+00   -0.18913E+00   512   0.149E+00-0.636E-03
CGA:   3    -0.308573130364E+02   -0.36502E-01   -0.36499E-01   512   0.251E-01 0.829E-05
CGA:   4    -0.308630088592E+02   -0.56958E-02   -0.56963E-02   512   0.502E-02 0.291E-06
CGA:   5    -0.308642880652E+02   -0.12792E-02   -0.12793E-02   512   0.122E-02-0.127E-05
CGA:   6    -0.308646554649E+02   -0.36740E-03   -0.36740E-03   512   0.369E-03 0.392E-07
CGA:   7    -0.308647756067E+02   -0.12014E-03   -0.12013E-03   512   0.118E-03 0.267E-06
CGA:   8    -0.308648141211E+02   -0.38514E-04   -0.38500E-04   512   0.314E-04 0.601E-06
CGA:   9    -0.308648245538E+02   -0.10433E-04   -0.10423E-04   512   0.686E-05 0.354E-06
CGA:  10    -0.308648268811E+02   -0.23273E-05   -0.23231E-05   512   0.140E-05 0.120E-06
CGA:  11    -0.308648273644E+02   -0.48336E-06   -0.48052E-06   512   0.283E-06 0.646E-07
CGA:  12    -0.308648274770E+02   -0.11262E-06   -0.11118E-06   512   0.683E-07 0.649E-08
CGA:  13    -0.308648275032E+02   -0.26120E-07   -0.24756E-07   512   0.144E-07 0.104E-07
CGA:  14    -0.308648275098E+02   -0.66784E-08   -0.57010E-08   512   0.373E-08 0.419E-08
  17 F= -.30864828E+02 E0= -.30864828E+02  d E =-.330479E-57
       N       E                     dE             d eps       ncg     rms          ort
SDA:   1    -0.307415406390E+02    0.12329E+00    0.00000E+00   512   0.234E+00 0.000E+00
CGA:   2    -0.308450799370E+02   -0.10354E+00   -0.10358E+00   512   0.665E-01-0.246E-03
CGA:   3    -0.308618153368E+02   -0.16735E-01   -0.16736E-01   512   0.127E-01 0.666E-05
CGA:   4    -0.308645815655E+02   -0.27662E-02   -0.27667E-02   512   0.256E-02 0.170E-06
CGA:   5    -0.308652469691E+02   -0.66540E-03   -0.66548E-03   512   0.626E-03 0.145E-06
CGA:   6    -0.308654356314E+02   -0.18866E-03   -0.18867E-03   512   0.194E-03 0.144E-06
CGA:   7    -0.308654974110E+02   -0.61780E-04   -0.61778E-04   512   0.602E-04 0.114E-06
CGA:   8    -0.308655169657E+02   -0.19555E-04   -0.19549E-04   512   0.156E-04 0.277E-06
CGA:   9    -0.308655221445E+02   -0.51788E-05   -0.51749E-05   512   0.336E-05 0.147E-06
CGA:  10    -0.308655232637E+02   -0.11193E-05   -0.11172E-05   512   0.654E-06 0.571E-07
CGA:  11    -0.308655234858E+02   -0.22206E-06   -0.22043E-06   512   0.128E-06 0.347E-07
CGA:  12    -0.308655235350E+02   -0.49178E-07   -0.47782E-07   512   0.310E-07 0.881E-08
CGA:  13    -0.308655235466E+02   -0.11625E-07   -0.10696E-07   512   0.807E-08 0.794E-08
CGA:  14    -0.308655235495E+02   -0.28604E-08   -0.24905E-08   512   0.286E-08 0.422E-08
  18 F= -.30865524E+02 E0= -.30865524E+02  d E =-.860188E-59
       N       E                     dE             d eps       ncg     rms          ort
SDA:   1    -0.306257360640E+02    0.23979E+00    0.00000E+00   512   0.450E+00 0.000E+00
CGA:   2    -0.308229457628E+02   -0.19721E+00   -0.19735E+00   512   0.142E+00-0.823E-03
CGA:   3    -0.308579428883E+02   -0.34997E-01   -0.34996E-01   512   0.255E-01 0.195E-04
CGA:   4    -0.308636319153E+02   -0.56890E-02   -0.56896E-02   512   0.515E-02 0.174E-05
CGA:   5    -0.308649564245E+02   -0.13245E-02   -0.13246E-02   512   0.127E-02-0.520E-06
CGA:   6    -0.308653414546E+02   -0.38503E-03   -0.38503E-03   512   0.396E-03 0.290E-06
CGA:   7    -0.308654690895E+02   -0.12763E-03   -0.12763E-03   512   0.126E-03 0.109E-06
CGA:   8    -0.308655103564E+02   -0.41267E-04   -0.41255E-04   512   0.333E-04 0.420E-06
CGA:   9    -0.308655214693E+02   -0.11113E-04   -0.11104E-04   512   0.726E-05 0.286E-06
CGA:  10    -0.308655239171E+02   -0.24479E-05   -0.24435E-05   512   0.147E-05 0.118E-06
CGA:  11    -0.308655244298E+02   -0.51263E-06   -0.50965E-06   512   0.307E-06 0.573E-07
CGA:  12    -0.308655245493E+02   -0.11950E-06   -0.11755E-06   512   0.750E-07 0.147E-07
CGA:  13    -0.308655245793E+02   -0.30073E-07   -0.28494E-07   512   0.182E-07 0.115E-07
CGA:  14    -0.308655245872E+02   -0.78298E-08   -0.68567E-08   512   0.489E-08 0.519E-08
  19 F= -.30865525E+02 E0= -.30865525E+02  d E =-.386071E-52
       N       E                     dE             d eps       ncg     rms          ort
SDA:   1    -0.308005943870E+02    0.64930E-01    0.00000E+00   512   0.124E+00 0.000E+00
CGA:   2    -0.308541859776E+02   -0.53592E-01   -0.53592E-01   512   0.387E-01-0.765E-05
CGA:   3    -0.308638011228E+02   -0.96151E-02   -0.96154E-02   512   0.709E-02 0.390E-05
CGA:   4    -0.308653794443E+02   -0.15783E-02   -0.15786E-02   512   0.143E-02-0.108E-06
CGA:   5    -0.308657440328E+02   -0.36459E-03   -0.36463E-03   512   0.340E-03 0.348E-07
CGA:   6    -0.308658462189E+02   -0.10219E-03   -0.10219E-03   512   0.101E-03 0.167E-06
CGA:   7    -0.308658788399E+02   -0.32621E-04   -0.32618E-04   512   0.319E-04 0.132E-06
CGA:   8    -0.308658891978E+02   -0.10358E-04   -0.10354E-04   512   0.839E-05 0.166E-06
CGA:   9    -0.308658919755E+02   -0.27778E-05   -0.27750E-05   512   0.181E-05 0.804E-07
CGA:  10    -0.308658925837E+02   -0.60815E-06   -0.60669E-06   512   0.356E-06 0.241E-07
CGA:  11    -0.308658927044E+02   -0.12069E-06   -0.11937E-06   512   0.683E-07 0.184E-07
CGA:  12    -0.308658927311E+02   -0.26756E-07   -0.25542E-07   512   0.157E-07 0.435E-08
CGA:  13    -0.308658927367E+02   -0.55797E-08   -0.48867E-08   512   0.394E-08 0.510E-08
  20 F= -.30865893E+02 E0= -.30865893E+02  d E =-.656037E-54
       N       E                     dE             d eps       ncg     rms          ort
SDA:   1    -0.308548285647E+02    0.11064E-01    0.00000E+00   512   0.211E-01 0.000E+00
CGA:   2    -0.308643868942E+02   -0.95583E-02   -0.95550E-02   512   0.596E-02 0.159E-04
CGA:   3    -0.308656316788E+02   -0.12448E-02   -0.12449E-02   512   0.916E-03-0.615E-06
CGA:   4    -0.308658353854E+02   -0.20371E-03   -0.20371E-03   512   0.181E-03-0.312E-06
CGA:   5    -0.308658797187E+02   -0.44333E-04   -0.44320E-04   512   0.349E-04-0.281E-06
CGA:   6    -0.308658894663E+02   -0.97476E-05   -0.97419E-05   512   0.831E-05-0.243E-06
CGA:   7    -0.308658919913E+02   -0.25250E-05   -0.25246E-05   512   0.245E-05-0.842E-07
CGA:   8    -0.308658927973E+02   -0.80602E-06   -0.80496E-06   512   0.723E-06 0.236E-08
CGA:   9    -0.308658930468E+02   -0.24953E-06   -0.24794E-06   512   0.184E-06 0.149E-07
CGA:  10    -0.308658931091E+02   -0.62269E-07   -0.61119E-07   512   0.394E-07 0.134E-07
CGA:  11    -0.308658931222E+02   -0.13098E-07   -0.12418E-07   512   0.823E-08 0.803E-08
CGA:  12    -0.308658931255E+02   -0.33297E-08   -0.26952E-08   512   0.217E-08 0.292E-08
  21 F= -.30865893E+02 E0= -.30865893E+02  d E =-.614225E-58
       N       E                     dE             d eps       ncg     rms          ort
SDA:   1    -0.308602875915E+02    0.56055E-02    0.00000E+00   512   0.106E-01 0.000E+00
CGA:   2    -0.308650505236E+02   -0.47629E-02   -0.47644E-02   512   0.313E-02-0.909E-05
CGA:   3    -0.308657237488E+02   -0.67323E-03   -0.67323E-03   512   0.495E-03-0.113E-05
CGA:   4    -0.308658332320E+02   -0.10948E-03   -0.10951E-03   512   0.922E-04 0.213E-06
CGA:   5    -0.308658559132E+02   -0.22681E-04   -0.22708E-04   512   0.189E-04 0.546E-06
CGA:   6    -0.308658612148E+02   -0.53016E-05   -0.53042E-05   512   0.465E-05 0.245E-06
CGA:   7    -0.308658626804E+02   -0.14656E-05   -0.14633E-05   512   0.138E-05 0.723E-07
CGA:   8    -0.308658631559E+02   -0.47555E-06   -0.47459E-06   512   0.421E-06-0.450E-09
CGA:   9    -0.308658633066E+02   -0.15063E-06   -0.15082E-06   512   0.117E-06-0.188E-07
CGA:  10    -0.308658633483E+02   -0.41706E-07   -0.41454E-07   512   0.303E-07-0.118E-07
CGA:  11    -0.308658633586E+02   -0.10393E-07   -0.93714E-08   512   0.629E-08-0.587E-09
CGA:  12    -0.308658633600E+02   -0.13615E-08   -0.11892E-08   512   0.212E-08 0.302E-08
  22 F= -.30865863E+02 E0= -.30865863E+02  d E =-.248302E-56
       N       E                     dE             d eps       ncg     rms          ort
SDA:   1    -0.308546232156E+02    0.11240E-01    0.00000E+00   512   0.219E-01 0.000E+00
CGA:   2    -0.308640169716E+02   -0.93938E-02   -0.93907E-02   512   0.716E-02 0.168E-04
CGA:   3    -0.308655621623E+02   -0.15452E-02   -0.15455E-02   512   0.109E-02 0.490E-06
CGA:   4    -0.308658030552E+02   -0.24089E-03   -0.24091E-03   512   0.197E-03-0.136E-06
CGA:   5    -0.308658518401E+02   -0.48785E-04   -0.48754E-04   512   0.383E-04-0.780E-06
CGA:   6    -0.308658625044E+02   -0.10664E-04   -0.10662E-04   512   0.893E-05-0.231E-06
CGA:   7    -0.308658652522E+02   -0.27478E-05   -0.27480E-05   512   0.264E-05-0.496E-07
CGA:   8    -0.308658661380E+02   -0.88584E-06   -0.88422E-06   512   0.808E-06 0.113E-07
CGA:   9    -0.308658664185E+02   -0.28050E-06   -0.27792E-06   512   0.211E-06 0.291E-07
CGA:  10    -0.308658664914E+02   -0.72836E-07   -0.71231E-07   512   0.465E-07 0.184E-07
CGA:  11    -0.308658665080E+02   -0.16660E-07   -0.15647E-07   512   0.101E-07 0.788E-08
CGA:  12    -0.308658665126E+02   -0.45484E-08   -0.36408E-08   512   0.259E-08 0.238E-08
  23 F= -.30865867E+02 E0= -.30865867E+02  d E =-.921346E-57
       N       E                     dE             d eps       ncg     rms          ort
SDA:   1    -0.308602623552E+02    0.56042E-02    0.00000E+00   512   0.114E-01 0.000E+00
CGA:   2    -0.308652646424E+02   -0.50023E-02   -0.50023E-02   512   0.283E-02-0.119E-05
CGA:   3    -0.308659164020E+02   -0.65176E-03   -0.65180E-03   512   0.469E-03-0.400E-06
CGA:   4    -0.308660205992E+02   -0.10420E-03   -0.10421E-03   512   0.864E-04 0.330E-07
CGA:   5    -0.308660409780E+02   -0.20379E-04   -0.20384E-04   512   0.149E-04 0.812E-07
CGA:   6    -0.308660449038E+02   -0.39258E-05   -0.39252E-05   512   0.294E-05 0.728E-08
CGA:   7    -0.308660457459E+02   -0.84216E-06   -0.84123E-06   512   0.711E-06 0.604E-08
CGA:   8    -0.308660459798E+02   -0.23386E-06   -0.23271E-06   512   0.209E-06 0.280E-08
CGA:   9    -0.308660460566E+02   -0.76752E-07   -0.75536E-07   512   0.660E-07 0.180E-08
CGA:  10    -0.308660460813E+02   -0.24776E-07   -0.23608E-07   512   0.168E-07 0.254E-08
CGA:  11    -0.308660460877E+02   -0.64028E-08   -0.54244E-08   512   0.349E-08 0.290E-08
  24 F= -.30866046E+02 E0= -.30866046E+02  d E =-.355145E-57
       N       E                     dE             d eps       ncg     rms          ort
SDA:   1    -0.308546617194E+02    0.11384E-01    0.00000E+00   512   0.222E-01 0.000E+00
CGA:   2    -0.308643529647E+02   -0.96912E-02   -0.96941E-02   512   0.641E-02-0.192E-04
CGA:   3    -0.308657612919E+02   -0.14083E-02   -0.14083E-02   512   0.104E-02-0.184E-05
CGA:   4    -0.308659903284E+02   -0.22904E-03   -0.22907E-03   512   0.189E-03 0.157E-06
CGA:   5    -0.308660358178E+02   -0.45489E-04   -0.45521E-04   512   0.350E-04 0.600E-06
CGA:   6    -0.308660452871E+02   -0.94693E-05   -0.94719E-05   512   0.758E-05 0.171E-06
CGA:   7    -0.308660475729E+02   -0.22859E-05   -0.22843E-05   512   0.205E-05 0.540E-07
CGA:   8    -0.308660482689E+02   -0.69600E-06   -0.69474E-06   512   0.636E-06 0.499E-08
CGA:   9    -0.308660485007E+02   -0.23178E-06   -0.23168E-06   512   0.191E-06-0.132E-07
CGA:  10    -0.308660485700E+02   -0.69262E-07   -0.68893E-07   512   0.485E-07-0.846E-08
CGA:  11    -0.308660485871E+02   -0.17136E-07   -0.16190E-07   512   0.102E-07 0.786E-11
CGA:  12    -0.308660485901E+02   -0.29850E-08   -0.24958E-08   512   0.249E-08 0.342E-08
  25 F= -.30866049E+02 E0= -.30866049E+02  d E =-.431675E-56
       N       E                     dE             d eps       ncg     rms          ort
SDA:   1    -0.308604181298E+02    0.56305E-02    0.00000E+00   512   0.111E-01 0.000E+00
CGA:   2    -0.308651046623E+02   -0.46865E-02   -0.46862E-02   512   0.365E-02 0.123E-05
CGA:   3    -0.308658978658E+02   -0.79320E-03   -0.79337E-03   512   0.572E-03-0.392E-07
CGA:   4    -0.308660231242E+02   -0.12526E-03   -0.12527E-03   512   0.104E-03-0.672E-07
CGA:   5    -0.308660483441E+02   -0.25220E-04   -0.25213E-04   512   0.196E-04-0.158E-06
CGA:   6    -0.308660536936E+02   -0.53495E-05   -0.53483E-05   512   0.447E-05-0.347E-07
CGA:   7    -0.308660550472E+02   -0.13535E-05   -0.13522E-05   512   0.129E-05 0.259E-07
CGA:   8    -0.308660554877E+02   -0.44059E-06   -0.43912E-06   512   0.405E-06 0.689E-08
CGA:   9    -0.308660556319E+02   -0.14412E-06   -0.14258E-06   512   0.108E-06 0.687E-08
CGA:  10    -0.308660556686E+02   -0.36709E-07   -0.35487E-07   512   0.224E-07 0.940E-08
CGA:  11    -0.308660556774E+02   -0.88103E-08   -0.78274E-08   512   0.480E-08 0.273E-08
  26 F= -.30866056E+02 E0= -.30866056E+02  d E =-.223360E-56
       N       E                     dE             d eps       ncg     rms          ort
SDA:   1    -0.308550406519E+02    0.11015E-01    0.00000E+00   512   0.215E-01 0.000E+00
CGA:   2    -0.308642263538E+02   -0.91857E-02   -0.91833E-02   512   0.708E-02 0.117E-04
CGA:   3    -0.308657558819E+02   -0.15295E-02   -0.15296E-02   512   0.106E-02-0.807E-06
CGA:   4    -0.308659892035E+02   -0.23332E-03   -0.23335E-03   512   0.201E-03 0.565E-07
CGA:   5    -0.308660377594E+02   -0.48556E-04   -0.48546E-04   512   0.392E-04-0.262E-06
CGA:   6    -0.308660484549E+02   -0.10696E-04   -0.10693E-04   512   0.909E-05-0.147E-06
CGA:   7    -0.308660512229E+02   -0.27680E-05   -0.27689E-05   512   0.265E-05-0.924E-07
CGA:   8    -0.308660521017E+02   -0.87878E-06   -0.87821E-06   512   0.810E-06-0.777E-08
CGA:   9    -0.308660523816E+02   -0.27985E-06   -0.27794E-06   512   0.215E-06 0.163E-07
CGA:  10    -0.308660524588E+02   -0.77244E-07   -0.75985E-07   512   0.510E-07 0.524E-08
CGA:  11    -0.308660524755E+02   -0.16670E-07   -0.15778E-07   512   0.988E-08 0.765E-08
CGA:  12    -0.308660524803E+02   -0.47830E-08   -0.37837E-08   512   0.249E-08 0.157E-08
  27 F= -.30866052E+02 E0= -.30866052E+02  d E =-.231237E-56
       N       E                     dE             d eps       ncg     rms          ort
SDA:   1    -0.308601192057E+02    0.59333E-02    0.00000E+00   512   0.109E-01 0.000E+00
CGA:   2    -0.308647842349E+02   -0.46650E-02   -0.46644E-02   512   0.343E-02 0.345E-05
CGA:   3    -0.308655366477E+02   -0.75241E-03   -0.75255E-03   512   0.534E-03-0.669E-07
CGA:   4    -0.308656531962E+02   -0.11655E-03   -0.11656E-03   512   0.969E-04 0.205E-09
CGA:   5    -0.308656764774E+02   -0.23281E-04   -0.23267E-04   512   0.176E-04-0.280E-06
CGA:   6    -0.308656811638E+02   -0.46864E-05   -0.46844E-05   512   0.368E-05-0.586E-07
CGA:   7    -0.308656822345E+02   -0.10708E-05   -0.10699E-05   512   0.972E-06 0.760E-08
CGA:   8    -0.308656825580E+02   -0.32348E-06   -0.32217E-06   512   0.299E-06 0.948E-08
CGA:   9    -0.308656826677E+02   -0.10968E-06   -0.10785E-06   512   0.865E-07 0.126E-07
CGA:  10    -0.308656826994E+02   -0.31716E-07   -0.30317E-07   512   0.204E-07 0.101E-07
CGA:  11    -0.308656827072E+02   -0.77653E-08   -0.69039E-08   512   0.458E-08 0.477E-08
  28 F= -.30865683E+02 E0= -.30865683E+02  d E =-.199813E-57
       N       E                     dE             d eps       ncg     rms          ort
SDA:   1    -0.308545173194E+02    0.11165E-01    0.00000E+00   512   0.216E-01 0.000E+00
CGA:   2    -0.308639093100E+02   -0.93920E-02   -0.93955E-02   512   0.680E-02-0.227E-04
CGA:   3    -0.308653726455E+02   -0.14633E-02   -0.14634E-02   512   0.108E-02-0.146E-05
CGA:   4    -0.308656095392E+02   -0.23689E-03   -0.23691E-03   512   0.199E-03-0.148E-06
CGA:   5    -0.308656573797E+02   -0.47841E-04   -0.47887E-04   512   0.398E-04 0.851E-06
CGA:   6    -0.308656682409E+02   -0.10861E-04   -0.10866E-04   512   0.935E-05 0.308E-06
CGA:   7    -0.308656711040E+02   -0.28631E-05   -0.28609E-05   512   0.271E-05 0.811E-07
CGA:   8    -0.308656720227E+02   -0.91866E-06   -0.91773E-06   512   0.834E-06-0.208E-08
CGA:   9    -0.308656723254E+02   -0.30270E-06   -0.30414E-06   512   0.245E-06-0.352E-07
CGA:  10    -0.308656724105E+02   -0.85150E-07   -0.85138E-07   512   0.617E-07-0.157E-07
CGA:  11    -0.308656724326E+02   -0.22118E-07   -0.21243E-07   512   0.142E-07-0.409E-08
CGA:  12    -0.308656724365E+02   -0.38071E-08   -0.32878E-08   512   0.341E-08 0.439E-08
  29 F= -.30865672E+02 E0= -.30865672E+02  d E =-.183547E-55
       N       E                     dE             d eps       ncg     rms          ort
SDA:   1    -0.308602735819E+02    0.53989E-02    0.00000E+00   512   0.114E-01 0.000E+00
CGA:   2    -0.308652913562E+02   -0.50178E-02   -0.50173E-02   512   0.287E-02 0.220E-05
CGA:   3    -0.308659564311E+02   -0.66507E-03   -0.66514E-03   512   0.475E-03-0.130E-06
CGA:   4    -0.308660613682E+02   -0.10494E-03   -0.10495E-03   512   0.880E-04 0.243E-07
CGA:   5    -0.308660821093E+02   -0.20741E-04   -0.20734E-04   512   0.158E-04-0.131E-06
CGA:   6    -0.308660862223E+02   -0.41130E-05   -0.41116E-05   512   0.322E-05-0.252E-07
CGA:   7    -0.308660871532E+02   -0.93085E-06   -0.92998E-06   512   0.833E-06-0.125E-07
CGA:   8    -0.308660874287E+02   -0.27555E-06   -0.27443E-06   512   0.261E-06 0.183E-08
CGA:   9    -0.308660875239E+02   -0.95221E-07   -0.93726E-07   512   0.806E-07 0.618E-08
CGA:  10    -0.308660875543E+02   -0.30328E-07   -0.28947E-07   512   0.201E-07 0.487E-08
CGA:  11    -0.308660875615E+02   -0.72041E-08   -0.63219E-08   512   0.416E-08 0.429E-08
  30 F= -.30866088E+02 E0= -.30866088E+02  d E =-.530771E-56
       N       E                     dE             d eps       ncg     rms          ort
SDA:   1    -0.308547181886E+02    0.11369E-01    0.00000E+00   512   0.223E-01 0.000E+00
CGA:   2    -0.308643847017E+02   -0.96665E-02   -0.96637E-02   512   0.633E-02 0.148E-04
CGA:   3    -0.308657958667E+02   -0.14112E-02   -0.14114E-02   512   0.104E-02-0.154E-06
CGA:   4    -0.308660249083E+02   -0.22904E-03   -0.22906E-03   512   0.192E-03 0.786E-08
CGA:   5    -0.308660710450E+02   -0.46137E-04   -0.46108E-04   512   0.367E-04-0.603E-06
CGA:   6    -0.308660808634E+02   -0.98184E-05   -0.98146E-05   512   0.818E-05-0.155E-06
CGA:   7    -0.308660833204E+02   -0.24570E-05   -0.24567E-05   512   0.234E-05-0.420E-07
CGA:   8    -0.308660841037E+02   -0.78330E-06   -0.78193E-06   512   0.745E-06 0.651E-08
CGA:   9    -0.308660843662E+02   -0.26251E-06   -0.25998E-06   512   0.206E-06 0.254E-07
CGA:  10    -0.308660844403E+02   -0.74085E-07   -0.72448E-07   512   0.486E-07 0.147E-07
CGA:  11    -0.308660844572E+02   -0.16900E-07   -0.15957E-07   512   0.103E-07 0.836E-08
CGA:  12    -0.308660844615E+02   -0.43156E-08   -0.35356E-08   512   0.259E-08 0.293E-08
  31 F= -.30866084E+02 E0= -.30866084E+02  d E =-.731223E-57
       N       E                     dE             d eps       ncg     rms          ort
SDA:   1    -0.308604219384E+02    0.56625E-02    0.00000E+00   512   0.112E-01 0.000E+00
CGA:   2    -0.308652877641E+02   -0.48658E-02   -0.48661E-02   512   0.318E-02-0.309E-05
CGA:   3    -0.308660370744E+02   -0.74931E-03   -0.74932E-03   512   0.470E-03-0.114E-05
CGA:   4    -0.308661439275E+02   -0.10685E-03   -0.10688E-03   512   0.923E-04 0.253E-06
CGA:   5    -0.308661655615E+02   -0.21634E-04   -0.21657E-04   512   0.188E-04 0.377E-06
CGA:   6    -0.308661707235E+02   -0.51620E-05   -0.51632E-05   512   0.453E-05 0.125E-06
CGA:   7    -0.308661721542E+02   -0.14307E-05   -0.14289E-05   512   0.143E-05 0.297E-07
CGA:   8    -0.308661726468E+02   -0.49264E-06   -0.49130E-06   512   0.471E-06 0.655E-08
CGA:   9    -0.308661728192E+02   -0.17238E-06   -0.17216E-06   512   0.135E-06-0.121E-07
CGA:  10    -0.308661728664E+02   -0.47157E-07   -0.46211E-07   512   0.299E-07-0.129E-08
CGA:  11    -0.308661728771E+02   -0.10755E-07   -0.97325E-08   512   0.612E-08 0.230E-08
CGA:  12    -0.308661728792E+02   -0.20791E-08   -0.15435E-08   512   0.171E-08 0.263E-08
  32 F= -.30866173E+02 E0= -.30866173E+02  d E =-.213047E-52
       N       E                     dE             d eps       ncg     rms          ort
SDA:   1    -0.308545054525E+02    0.11667E-01    0.00000E+00   512   0.226E-01 0.000E+00
CGA:   2    -0.308643958960E+02   -0.98904E-02   -0.98908E-02   512   0.637E-02-0.475E-05
CGA:   3    -0.308659162061E+02   -0.15203E-02   -0.15204E-02   512   0.886E-03 0.432E-06
CGA:   4    -0.308661183088E+02   -0.20210E-03   -0.20210E-03   512   0.185E-03-0.391E-06
CGA:   5    -0.308661608328E+02   -0.42524E-04   -0.42519E-04   512   0.394E-04-0.129E-06
CGA:   6    -0.308661718124E+02   -0.10980E-04   -0.10978E-04   512   0.983E-05-0.915E-07
CGA:   7    -0.308661750094E+02   -0.31970E-05   -0.31961E-05   512   0.319E-05-0.657E-08
CGA:   8    -0.308661761435E+02   -0.11341E-05   -0.11341E-05   512   0.106E-05-0.158E-07
CGA:   9    -0.308661765140E+02   -0.37053E-06   -0.36875E-06   512   0.273E-06 0.140E-07
CGA:  10    -0.308661766130E+02   -0.98980E-07   -0.97922E-07   512   0.615E-07 0.141E-09
CGA:  11    -0.308661766357E+02   -0.22647E-07   -0.21541E-07   512   0.129E-07 0.178E-08
CGA:  12    -0.308661766399E+02   -0.42464E-08   -0.35893E-08   512   0.298E-08 0.397E-08
  33 F= -.30866177E+02 E0= -.30866177E+02  d E =-.174998E-60
       N       E                     dE             d eps       ncg     rms          ort
SDA:   1    -0.308600655176E+02    0.61111E-02    0.00000E+00   512   0.112E-01 0.000E+00
CGA:   2    -0.308650086861E+02   -0.49432E-02   -0.49434E-02   512   0.317E-02-0.304E-05
CGA:   3    -0.308657556824E+02   -0.74700E-03   -0.74708E-03   512   0.447E-03 0.344E-06
CGA:   4    -0.308658550871E+02   -0.99405E-04   -0.99423E-04   512   0.938E-04 0.137E-06
CGA:   5    -0.308658767986E+02   -0.21712E-04   -0.21705E-04   512   0.198E-04-0.116E-06
CGA:   6    -0.308658823709E+02   -0.55723E-05   -0.55714E-05   512   0.503E-05-0.125E-07
CGA:   7    -0.308658840159E+02   -0.16450E-05   -0.16456E-05   512   0.168E-05-0.389E-07
CGA:   8    -0.308658846007E+02   -0.58485E-06   -0.58419E-06   512   0.544E-06-0.629E-08
CGA:   9    -0.308658847934E+02   -0.19266E-06   -0.19179E-06   512   0.143E-06-0.264E-08
CGA:  10    -0.308658848419E+02   -0.48518E-07   -0.47362E-07   512   0.298E-07 0.568E-08
CGA:  11    -0.308658848525E+02   -0.10573E-07   -0.96344E-08   512   0.623E-08 0.437E-08
CGA:  12    -0.308658848553E+02   -0.27512E-08   -0.19879E-08   512   0.163E-08 0.204E-08
  34 F= -.30865885E+02 E0= -.30865885E+02  d E =-.458503E-53
       N       E                     dE             d eps       ncg     rms          ort
SDA:   1    -0.308544424007E+02    0.11442E-01    0.00000E+00   512   0.214E-01 0.000E+00
CGA:   2    -0.308643909863E+02   -0.99486E-02   -0.99460E-02   512   0.551E-02 0.124E-04
CGA:   3    -0.308656650703E+02   -0.12741E-02   -0.12741E-02   512   0.760E-03-0.289E-05
CGA:   4    -0.308658408473E+02   -0.17578E-03   -0.17581E-03   512   0.166E-03 0.349E-06
CGA:   5    -0.308658794582E+02   -0.38611E-04   -0.38639E-04   512   0.391E-04 0.428E-06
CGA:   6    -0.308658906355E+02   -0.11177E-04   -0.11177E-04   512   0.107E-04 0.120E-06
CGA:   7    -0.308658941329E+02   -0.34974E-05   -0.34934E-05   512   0.346E-05 0.853E-07
CGA:   8    -0.308658952905E+02   -0.11576E-05   -0.11555E-05   512   0.100E-05 0.284E-07
CGA:   9    -0.308658956276E+02   -0.33705E-06   -0.33580E-06   512   0.239E-06 0.758E-08
CGA:  10    -0.308658957091E+02   -0.81576E-07   -0.80456E-07   512   0.521E-07 0.324E-08
CGA:  11    -0.308658957268E+02   -0.17657E-07   -0.16654E-07   512   0.107E-07 0.550E-08
CGA:  12    -0.308658957304E+02   -0.35525E-08   -0.29823E-08   512   0.278E-08 0.405E-08
  35 F= -.30865896E+02 E0= -.30865896E+02  d E =-.103466E-59
       N       E                     dE             d eps       ncg     rms          ort
SDA:   1    -0.308602287828E+02    0.56669E-02    0.00000E+00   512   0.113E-01 0.000E+00
CGA:   2    -0.308654911390E+02   -0.52624E-02   -0.52625E-02   512   0.223E-02-0.137E-05
CGA:   3    -0.308660488762E+02   -0.55774E-03   -0.55777E-03   512   0.324E-03 0.237E-06
CGA:   4    -0.308661278284E+02   -0.78952E-04   -0.78951E-04   512   0.644E-04-0.926E-07
CGA:   5    -0.308661425546E+02   -0.14726E-04   -0.14724E-04   512   0.143E-04-0.457E-07
CGA:   6    -0.308661463339E+02   -0.37793E-05   -0.37785E-05   512   0.345E-05-0.421E-08
CGA:   7    -0.308661474341E+02   -0.11002E-05   -0.10995E-05   512   0.106E-05-0.872E-08
CGA:   8    -0.308661477928E+02   -0.35870E-06   -0.35782E-06   512   0.323E-06-0.191E-08
CGA:   9    -0.308661479018E+02   -0.10902E-06   -0.10795E-06   512   0.787E-07 0.357E-08
CGA:  10    -0.308661479292E+02   -0.27441E-07   -0.26429E-07   512   0.164E-07 0.242E-08
CGA:  11    -0.308661479352E+02   -0.59763E-08   -0.51408E-08   512   0.326E-08 0.253E-08
  36 F= -.30866148E+02 E0= -.30866148E+02  d E =-.584398E-60
       N       E                     dE             d eps       ncg     rms          ort
SDA:   1    -0.308545251135E+02    0.11623E-01    0.00000E+00   512   0.219E-01 0.000E+00
CGA:   2    -0.308647203430E+02   -0.10195E-01   -0.10197E-01   512   0.510E-02-0.147E-04
CGA:   3    -0.308659256975E+02   -0.12054E-02   -0.12055E-02   512   0.737E-03 0.755E-06
CGA:   4    -0.308660968396E+02   -0.17114E-03   -0.17114E-03   512   0.158E-03-0.168E-06
CGA:   5    -0.308661329647E+02   -0.36125E-04   -0.36109E-04   512   0.349E-04-0.293E-06
CGA:   6    -0.308661425943E+02   -0.96297E-05   -0.96283E-05   512   0.886E-05-0.478E-07
CGA:   7    -0.308661454588E+02   -0.28644E-05   -0.28652E-05   512   0.283E-05-0.559E-07
CGA:   8    -0.308661464065E+02   -0.94777E-06   -0.94740E-06   512   0.845E-06-0.156E-07
CGA:   9    -0.308661466912E+02   -0.28462E-06   -0.28361E-06   512   0.208E-06 0.164E-09
CGA:  10    -0.308661467623E+02   -0.71182E-07   -0.70005E-07   512   0.448E-07 0.422E-08
CGA:  11    -0.308661467788E+02   -0.16433E-07   -0.15367E-07   512   0.985E-08 0.301E-08
CGA:  12    -0.308661467831E+02   -0.43556E-08   -0.33655E-08   512   0.230E-08 0.171E-08
  37 F= -.30866147E+02 E0= -.30866147E+02  d E =-.425054E-53
