  768  768    1    1
  0.9475221E+01  0.2651230E-08  0.1176918E-08  0.2332153E-08  0.5000000E-15
   1.0000000000000000E-004
  CAR 
 unknown system                          
   2304      1   1664

  0.1262379E-14  0.1262379E-14  0.1262379E-14  0.1000000E+01
      1        -23.046917   1.000000
      2        -23.044454   1.000000
      3        -23.044369   1.000000
      4        -23.041849   1.000000
      5        -23.013115   1.000000
      6        -23.012864   1.000000
      7        -23.011236   1.000000
      8        -23.011157   1.000000
      9        -23.011063   1.000000
     10        -23.010800   1.000000
     11        -23.009250   1.000000
     12        -23.008963   1.000000
     13        -22.985417   1.000000
     14        -22.985385   1.000000
     15        -22.985352   1.000000
     16        -22.985345   1.000000
     17        -22.985330   1.000000
     18        -22.985315   1.000000
     19        -22.985314   1.000000
     20        -22.985045   1.000000
     21        -22.965465   1.000000
     22        -22.965436   1.000000
     23        -22.965416   1.000000
     24        -22.965411   1.000000
     25        -22.965397   1.000000
     26        -22.965395   1.000000
     27        -22.965392   1.000000
     28        -22.965126   1.000000
     29        -22.952116   1.000000
     30        -22.952046   1.000000
     31        -22.950710   1.000000
     32        -22.950701   1.000000
     33        -22.950681   1.000000
     34        -22.950534   1.000000
     35        -22.949248   1.000000
     36        -22.949159   1.000000
     37        -22.927685   1.000000
     38        -22.927608   1.000000
     39        -22.927391   1.000000
     40        -22.927382   1.000000
     41        -22.927365   1.000000
     42        -22.927234   1.000000
     43        -22.927087   1.000000
     44        -22.926931   1.000000
     45        -22.901811   1.000000
     46        -22.901742   1.000000
     47        -22.901715   1.000000
     48        -22.901711   1.000000
     49        -22.901696   1.000000
     50        -22.901682   1.000000
     51        -22.901682   1.000000
     52        -22.901359   1.000000
     53        -22.875429   1.000000
     54        -22.875318   1.000000
     55        -22.875293   1.000000
     56        -22.875283   1.000000
     57        -22.875268   1.000000
     58        -22.875257   1.000000
     59        -22.875256   1.000000
     60        -22.874945   1.000000
     61        -22.839968   1.000000
     62        -22.839679   1.000000
     63        -22.838358   1.000000
     64        -22.838206   1.000000
     65        -22.838114   1.000000
     66        -22.837874   1.000000
     67        -22.836637   1.000000
     68        -22.836334   1.000000
     69        -22.825857   1.000000
     70        -22.825768   1.000000
     71        -22.824627   1.000000
     72        -22.824598   1.000000
     73        -22.824587   1.000000
     74        -22.824447   1.000000
     75        -22.823401   1.000000
     76        -22.823300   1.000000
     77        -22.801861   1.000000
     78        -22.801124   1.000000
     79        -22.801024   1.000000
     80        -22.800996   1.000000
     81        -22.800971   1.000000
     82        -22.800958   1.000000
     83        -22.800955   1.000000
     84        -22.800952   1.000000
     85        -22.800728   1.000000
     86        -22.799258   1.000000
     87        -22.799176   1.000000
     88        -22.796682   1.000000
     89        -22.779421   1.000000
     90        -22.779330   1.000000
     91        -22.779297   1.000000
     92        -22.779291   1.000000
     93        -22.779273   1.000000
     94        -22.779269   1.000000
     95        -22.779269   1.000000
     96        -22.778985   1.000000
     97        -20.871206   1.000000
     98        -20.871176   1.000000
     99        -20.871169   1.000000
    100        -20.871153   1.000000
    101        -20.871115   1.000000
    102        -20.871115   1.000000
    103        -20.871033   1.000000
    104        -20.869985   1.000000
    105        -20.859467   1.000000
    106        -20.859444   1.000000
    107        -20.859419   1.000000
    108        -20.859405   1.000000
    109        -20.859382   1.000000
    110        -20.859379   1.000000
    111        -20.859296   1.000000
    112        -20.857864   1.000000
    113        -20.842420   1.000000
    114        -20.841569   1.000000
    115        -20.841179   1.000000
    116        -20.840209   1.000000
    117        -20.797795   1.000000
    118        -20.797547   1.000000
    119        -20.796774   1.000000
    120        -20.796745   1.000000
    121        -20.796686   1.000000
    122        -20.796170   1.000000
    123        -20.795702   1.000000
    124        -20.794859   1.000000
    125        -20.787893   1.000000
    126        -20.787703   1.000000
    127        -20.786851   1.000000
    128        -20.786842   1.000000
    129        -20.786785   1.000000
    130        -20.786264   1.000000
    131        -20.785739   1.000000
    132        -20.784846   1.000000
    133        -20.760004   1.000000
    134        -20.759990   1.000000
    135        -20.759981   1.000000
    136        -20.759980   1.000000
    137        -20.759969   1.000000
    138        -20.759929   1.000000
    139        -20.759929   1.000000
    140        -20.758326   1.000000
    141        -20.692973   1.000000
    142        -20.692802   1.000000
    143        -20.692332   1.000000
    144        -20.692295   1.000000
    145        -20.692294   1.000000
    146        -20.691897   1.000000
    147        -20.691658   1.000000
    148        -20.690654   1.000000
    149        -20.663610   1.000000
    150        -20.663600   1.000000
    151        -20.663575   1.000000
    152        -20.663575   1.000000
    153        -20.663561   1.000000
    154        -20.663522   1.000000
    155        -20.663521   1.000000
    156        -20.662048   1.000000
    157        -20.638980   1.000000
    158        -20.638826   1.000000
    159        -20.638209   1.000000
    160        -20.638201   1.000000
    161        -20.638158   1.000000
    162        -20.637743   1.000000
    163        -20.637393   1.000000
    164        -20.636511   1.000000
    165        -20.592623   1.000000
    166        -20.592456   1.000000
    167        -20.592310   1.000000
    168        -20.592296   1.000000
    169        -20.592216   1.000000
    170        -20.592024   1.000000
    171        -20.591972   1.000000
    172        -20.590685   1.000000
    173        -20.573413   1.000000
    174        -20.573386   1.000000
    175        -20.573360   1.000000
    176        -20.573347   1.000000
    177        -20.573320   1.000000
    178        -20.573317   1.000000
    179        -20.573287   1.000000
    180        -20.572141   1.000000
    181        -20.563214   1.000000
    182        -20.563186   1.000000
    183        -20.563179   1.000000
    184        -20.563161   1.000000
    185        -20.563135   1.000000
    186        -20.563135   1.000000
    187        -20.562986   1.000000
    188        -20.561601   1.000000
    189        -20.552577   1.000000
    190        -20.551861   1.000000
    191        -20.551472   1.000000
    192        -20.550580   1.000000
    193        -14.096708   1.000000
    194        -14.089641   1.000000
    195        -14.089339   1.000000
    196        -14.079974   1.000000
    197        -14.079825   1.000000
    198        -14.079282   1.000000
    199        -14.079143   1.000000
    200        -14.078905   1.000000
    201        -14.078784   1.000000
    202        -14.065397   1.000000
    203        -14.065167   1.000000
    204        -14.058646   1.000000
    205        -14.058483   1.000000
    206        -14.057747   1.000000
    207        -14.057557   1.000000
    208        -14.057527   1.000000
    209        -14.057514   1.000000
    210        -14.056732   1.000000
    211        -14.056638   1.000000
    212        -14.056498   1.000000
    213        -14.017609   1.000000
    214        -14.017297   1.000000
    215        -14.015258   1.000000
    216        -14.015055   1.000000
    217        -14.014984   1.000000
    218        -14.014948   1.000000
    219        -14.008727   1.000000
    220        -14.008539   1.000000
    221        -14.007651   1.000000
    222        -14.007481   1.000000
    223        -14.007300   1.000000
    224        -14.007220   1.000000
    225        -14.005613   1.000000
    226        -14.005552   1.000000
    227        -14.005358   1.000000
    228        -14.005231   1.000000
    229        -14.001863   1.000000
    230        -14.001680   1.000000
    231        -14.001592   1.000000
    232        -14.001576   1.000000
    233        -13.997334   1.000000
    234        -13.996978   1.000000
    235        -13.996815   1.000000
    236        -13.996747   1.000000
    237        -13.996697   1.000000
    238        -13.996691   1.000000
    239        -13.996677   1.000000
    240        -13.996663   1.000000
    241        -13.996600   1.000000
    242        -13.996572   1.000000
    243        -13.994926   1.000000
    244        -13.994848   1.000000
    245        -13.994676   1.000000
    246        -13.994558   1.000000
    247        -13.993818   1.000000
    248        -13.993699   1.000000
    249        -13.990684   1.000000
    250        -13.979805   1.000000
    251        -13.979510   1.000000
    252        -13.979464   1.000000
    253        -13.979445   1.000000
    254        -13.973688   1.000000
    255        -13.973599   1.000000
    256        -13.962410   1.000000
    257        -13.942264   1.000000
    258        -13.941789   1.000000
    259        -13.941747   1.000000
    260        -13.941743   1.000000
    261        -13.941739   1.000000
    262        -13.941737   1.000000
    263        -13.941669   1.000000
    264        -13.941617   1.000000
    265        -13.935143   1.000000
    266        -13.934952   1.000000
    267        -13.934888   1.000000
    268        -13.934870   1.000000
    269        -13.914634   1.000000
    270        -13.914396   1.000000
    271        -13.914277   1.000000
    272        -13.914167   1.000000
    273        -13.907707   1.000000
    274        -13.907598   1.000000
    275        -13.907440   1.000000
    276        -13.907350   1.000000
    277        -13.894765   1.000000
    278        -13.894456   1.000000
    279        -13.894422   1.000000
    280        -13.894382   1.000000
    281        -13.891519   1.000000
    282        -13.891393   1.000000
    283        -13.883658   1.000000
    284        -13.883482   1.000000
    285        -13.883413   1.000000
    286        -13.883400   1.000000
    287        -13.876489   1.000000
    288        -13.876392   1.000000
    289        -10.918480   1.000000
    290        -10.857817   1.000000
    291        -10.857630   1.000000
    292        -10.783437   1.000000
    293        -10.771111   1.000000
    294        -10.771083   1.000000
    295        -10.771038   1.000000
    296        -10.770824   1.000000
    297        -10.768786   1.000000
    298        -10.768753   1.000000
    299        -10.768700   1.000000
    300        -10.768417   1.000000
    301        -10.764383   1.000000
    302        -10.764156   1.000000
    303        -10.723163   1.000000
    304        -10.723114   1.000000
    305        -10.723055   1.000000
    306        -10.722753   1.000000
    307        -10.719597   1.000000
    308        -10.719470   1.000000
    309        -10.686214   1.000000
    310        -10.686202   1.000000
    311        -10.686175   1.000000
    312        -10.685958   1.000000
    313        -10.684610   1.000000
    314        -10.684562   1.000000
    315        -10.684548   1.000000
    316        -10.684528   1.000000
    317        -10.684484   1.000000
    318        -10.684436   1.000000
    319        -10.684376   1.000000
    320        -10.683756   1.000000
    321        -10.670818   1.000000
    322        -10.670606   1.000000
    323        -10.644314   1.000000
    324        -10.644195   1.000000
    325        -10.549472   1.000000
    326        -10.549452   1.000000
    327        -10.549389   1.000000
    328        -10.549164   1.000000
    329        -10.542800   1.000000
    330        -10.542781   1.000000
    331        -10.542723   1.000000
    332        -10.542468   1.000000
    333        -10.462071   1.000000
    334        -10.461972   1.000000
    335        -10.452935   1.000000
    336        -10.452901   1.000000
    337        -10.452863   1.000000
    338        -10.452641   1.000000
    339        -10.443566   1.000000
    340        -10.443464   1.000000
    341        -10.426174   1.000000
    342        -10.426154   1.000000
    343        -10.426111   1.000000
    344        -10.425918   1.000000
    345        -10.422303   1.000000
    346        -10.422244   1.000000
    347        -10.421833   1.000000
    348        -10.421813   1.000000
    349        -10.421763   1.000000
    350        -10.421510   1.000000
    351        -10.385227   1.000000
    352        -10.385216   1.000000
    353        -10.385135   1.000000
    354        -10.384993   1.000000
    355        -10.356440   1.000000
    356        -10.356371   1.000000
    357        -10.337015   1.000000
    358        -10.336789   1.000000
    359        -10.305994   1.000000
    360        -10.281699   1.000000
    361        -10.281677   1.000000
    362        -10.281591   1.000000
    363        -10.281331   1.000000
    364        -10.247084   1.000000
    365        -10.246976   1.000000
    366        -10.237719   1.000000
    367        -10.237496   1.000000
    368        -10.220864   1.000000
    369        -10.220837   1.000000
    370        -10.220831   1.000000
    371        -10.220831   1.000000
    372        -10.220827   1.000000
    373        -10.220809   1.000000
    374        -10.220726   1.000000
    375        -10.220479   1.000000
    376        -10.202300   1.000000
    377        -10.202213   1.000000
    378        -10.202166   1.000000
    379        -10.202155   1.000000
    380        -10.202135   1.000000
    381        -10.202080   1.000000
    382        -10.202032   1.000000
    383        -10.201976   1.000000
    384        -10.201686   1.000000
    385         -8.274515   1.000000
    386         -8.185857   1.000000
    387         -8.185547   1.000000
    388         -8.156070   1.000000
    389         -8.156049   1.000000
    390         -8.155992   1.000000
    391         -8.155546   1.000000
    392         -8.149971   1.000000
    393         -8.149946   1.000000
    394         -8.149893   1.000000
    395         -8.149383   1.000000
    396         -8.141658   1.000000
    397         -8.141615   1.000000
    398         -8.141572   1.000000
    399         -8.141371   1.000000
    400         -8.140984   1.000000
    401         -8.140942   1.000000
    402         -8.140890   1.000000
    403         -8.139890   1.000000
    404         -8.132623   1.000000
    405         -8.132307   1.000000
    406         -8.107006   1.000000
    407         -8.106956   1.000000
    408         -8.106915   1.000000
    409         -8.106395   1.000000
    410         -8.076353   1.000000
    411         -8.070543   1.000000
    412         -8.070271   1.000000
    413         -8.007000   1.000000
    414         -8.006757   1.000000
    415         -7.985155   1.000000
    416         -7.985128   1.000000
    417         -7.985110   1.000000
    418         -7.984640   1.000000
    419         -7.952207   1.000000
    420         -7.951961   1.000000
    421         -7.920228   1.000000
    422         -7.920200   1.000000
    423         -7.920163   1.000000
    424         -7.919755   1.000000
    425         -7.909718   1.000000
    426         -7.909517   1.000000
    427         -7.908215   1.000000
    428         -7.908195   1.000000
    429         -7.908183   1.000000
    430         -7.907678   1.000000
    431         -7.851466   1.000000
    432         -7.851409   1.000000
    433         -7.851401   1.000000
    434         -7.850982   1.000000
    435         -7.787085   1.000000
    436         -7.786826   1.000000
    437         -7.714775   1.000000
    438         -7.714630   1.000000
    439         -7.714616   1.000000
    440         -7.714293   1.000000
    441         -7.711295   1.000000
    442         -7.711172   1.000000
    443         -7.711158   1.000000
    444         -7.710752   1.000000
    445         -7.680856   1.000000
    446         -7.680660   1.000000
    447         -7.599737   1.000000
    448         -7.599630   1.000000
    449         -7.599629   1.000000
    450         -7.599335   1.000000
    451         -7.561752   1.000000
    452         -7.561426   1.000000
    453         -7.526791   1.000000
    454         -7.526578   1.000000
    455         -7.517558   1.000000
    456         -7.517413   1.000000
    457         -7.517397   1.000000
    458         -7.517335   1.000000
    459         -7.517241   1.000000
    460         -7.517196   1.000000
    461         -7.517154   1.000000
    462         -7.516995   1.000000
    463         -7.492161   1.000000
    464         -7.491983   1.000000
    465         -7.491895   1.000000
    466         -7.491556   1.000000
    467         -7.458656   1.000000
    468         -7.458564   1.000000
    469         -7.458538   1.000000
    470         -7.458447   1.000000
    471         -7.448958   1.000000
    472         -7.448854   1.000000
    473         -7.448842   1.000000
    474         -7.448746   1.000000
    475         -7.443044   1.000000
    476         -7.442689   1.000000
    477         -7.350857   1.000000
    478         -7.336704   1.000000
    479         -7.336673   1.000000
    480         -7.324135   1.000000
    481         -7.319156   1.000000
    482         -7.319131   1.000000
    483         -7.319044   1.000000
    484         -7.318985   1.000000
    485         -7.302309   1.000000
    486         -7.271176   1.000000
    487         -7.271143   1.000000
    488         -7.271107   1.000000
    489         -7.271044   1.000000
    490         -7.256665   1.000000
    491         -7.256588   1.000000
    492         -7.256546   1.000000
    493         -7.256438   1.000000
    494         -7.255674   1.000000
    495         -7.255489   1.000000
    496         -7.243045   1.000000
    497         -7.243001   1.000000
    498         -7.242972   1.000000
    499         -7.242868   1.000000
    500         -7.222527   1.000000
    501         -7.222492   1.000000
    502         -7.210238   1.000000
    503         -7.210148   1.000000
    504         -7.210020   1.000000
    505         -7.209881   1.000000
    506         -7.206993   1.000000
    507         -7.206972   1.000000
    508         -7.206900   1.000000
    509         -7.206784   1.000000
    510         -7.190145   1.000000
    511         -7.190047   1.000000
    512         -7.180008   1.000000
    513         -7.179991   1.000000
    514         -7.179935   1.000000
    515         -7.179813   1.000000
    516         -7.174331   1.000000
    517         -7.174288   1.000000
    518         -7.174246   1.000000
    519         -7.174203   1.000000
    520         -7.126698   1.000000
    521         -7.126668   1.000000
    522         -7.118618   1.000000
    523         -7.118494   1.000000
    524         -7.118486   1.000000
    525         -7.118410   1.000000
    526         -7.109305   1.000000
    527         -7.109287   1.000000
    528         -7.109217   1.000000
    529         -7.109151   1.000000
    530         -7.097006   1.000000
    531         -7.096909   1.000000
    532         -7.096874   1.000000
    533         -7.096840   1.000000
    534         -7.096464   1.000000
    535         -7.096421   1.000000
    536         -7.094958   1.000000
    537         -7.094883   1.000000
    538         -7.094763   1.000000
    539         -7.094714   1.000000
    540         -7.094529   1.000000
    541         -7.094494   1.000000
    542         -7.090994   1.000000
    543         -7.090987   1.000000
    544         -7.090979   1.000000
    545         -7.090867   1.000000
    546         -7.079761   1.000000
    547         -7.079509   1.000000
    548         -7.063016   1.000000
    549         -7.062771   1.000000
    550         -7.059642   1.000000
    551         -7.059617   1.000000
    552         -7.059610   1.000000
    553         -7.059524   1.000000
    554         -7.052908   1.000000
    555         -7.052870   1.000000
    556         -7.052753   1.000000
    557         -7.052741   1.000000
    558         -7.051895   1.000000
    559         -7.051857   1.000000
    560         -7.048932   1.000000
    561         -7.035568   1.000000
    562         -7.035556   1.000000
    563         -7.035498   1.000000
    564         -7.035459   1.000000
    565         -7.022255   1.000000
    566         -7.022203   1.000000
    567         -6.993336   1.000000
    568         -6.993266   1.000000
    569         -6.993116   1.000000
    570         -6.993097   1.000000
    571         -6.980484   1.000000
    572         -6.980423   1.000000
    573         -6.980393   1.000000
    574         -6.980333   1.000000
    575         -6.969832   1.000000
    576         -6.969772   1.000000
    577         -6.964976   1.000000
    578         -6.964911   1.000000
    579         -6.964875   1.000000
    580         -6.964758   1.000000
    581         -6.960459   1.000000
    582         -6.958746   1.000000
    583         -6.958697   1.000000
    584         -6.958565   1.000000
    585         -6.958457   1.000000
    586         -6.939373   1.000000
    587         -6.939289   1.000000
    588         -6.939210   1.000000
    589         -6.939031   1.000000
    590         -6.916748   1.000000
    591         -6.916691   1.000000
    592         -6.904101   1.000000
    593         -6.904073   1.000000
    594         -6.904030   1.000000
    595         -6.904014   1.000000
    596         -6.900838   1.000000
    597         -6.900658   1.000000
    598         -6.888819   1.000000
    599         -6.888768   1.000000
    600         -6.888736   1.000000
    601         -6.888606   1.000000
    602         -6.882262   1.000000
    603         -6.882181   1.000000
    604         -6.882141   1.000000
    605         -6.882079   1.000000
    606         -6.873185   1.000000
    607         -6.873147   1.000000
    608         -6.873085   1.000000
    609         -6.872980   1.000000
    610         -6.866905   1.000000
    611         -6.866807   1.000000
    612         -6.855468   1.000000
    613         -6.855430   1.000000
    614         -6.844087   1.000000
    615         -6.844050   1.000000
    616         -6.838516   1.000000
    617         -6.838429   1.000000
    618         -6.838395   1.000000
    619         -6.838301   1.000000
    620         -6.837103   1.000000
    621         -6.837095   1.000000
    622         -6.837061   1.000000
    623         -6.836970   1.000000
    624         -6.819281   1.000000
    625         -6.786318   1.000000
    626         -6.786291   1.000000
    627         -6.786254   1.000000
    628         -6.786197   1.000000
    629         -6.776623   1.000000
    630         -6.776514   1.000000
    631         -6.776490   1.000000
    632         -6.776422   1.000000
    633         -6.750355   1.000000
    634         -6.750322   1.000000
    635         -6.750249   1.000000
    636         -6.750126   1.000000
    637         -6.744089   1.000000
    638         -6.744039   1.000000
    639         -6.743980   1.000000
    640         -6.743919   1.000000
    641         -6.605407   1.000000
    642         -6.605188   1.000000
    643         -6.593497   1.000000
    644         -6.593465   1.000000
    645         -6.592043   1.000000
    646         -6.591927   1.000000
    647         -6.591908   1.000000
    648         -6.591718   1.000000
    649         -6.564257   1.000000
    650         -6.564250   1.000000
    651         -6.564223   1.000000
    652         -6.564159   1.000000
    653         -6.559395   1.000000
    654         -6.554773   1.000000
    655         -6.554425   1.000000
    656         -6.553837   1.000000
    657         -6.547912   1.000000
    658         -6.547834   1.000000
    659         -6.537271   1.000000
    660         -6.537229   1.000000
    661         -6.528652   1.000000
    662         -6.522176   1.000000
    663         -6.521966   1.000000
    664         -6.497469   1.000000
    665         -6.497367   1.000000
    666         -6.497279   1.000000
    667         -6.497176   1.000000
    668         -6.486724   1.000000
    669         -6.486688   1.000000
    670         -6.482150   1.000000
    671         -6.481954   1.000000
    672         -6.424960   1.000000
    673         -5.763719   1.000000
    674         -5.763678   1.000000
    675         -5.763650   1.000000
    676         -5.763538   1.000000
    677         -5.749619   1.000000
    678         -5.749559   1.000000
    679         -5.749527   1.000000
    680         -5.749476   1.000000
    681         -5.712393   1.000000
    682         -5.712332   1.000000
    683         -5.695123   1.000000
    684         -5.695078   1.000000
    685         -5.682517   1.000000
    686         -5.682461   1.000000
    687         -5.682374   1.000000
    688         -5.682333   1.000000
    689         -5.680745   1.000000
    690         -5.680697   1.000000
    691         -5.680565   1.000000
    692         -5.680489   1.000000
    693         -5.667492   1.000000
    694         -5.634077   1.000000
    695         -5.634024   1.000000
    696         -5.633975   1.000000
    697         -5.633952   1.000000
    698         -5.629978   1.000000
    699         -5.629950   1.000000
    700         -5.629905   1.000000
    701         -5.629813   1.000000
    702         -5.627049   1.000000
    703         -5.626999   1.000000
    704         -5.626939   1.000000
    705         -5.626824   1.000000
    706         -5.587008   1.000000
    707         -5.586745   1.000000
    708         -5.560367   1.000000
    709         -5.560262   1.000000
    710         -5.560201   1.000000
    711         -5.560066   1.000000
    712         -5.534657   1.000000
    713         -5.534535   1.000000
    714         -5.529920   1.000000
    715         -5.529879   1.000000
    716         -5.529834   1.000000
    717         -5.529812   1.000000
    718         -5.502112   1.000000
    719         -5.502038   1.000000
    720         -5.495963   1.000000
    721         -5.495925   1.000000
    722         -5.495884   1.000000
    723         -5.495844   1.000000
    724         -5.494087   1.000000
    725         -5.476782   1.000000
    726         -5.476746   1.000000
    727         -5.476651   1.000000
    728         -5.476583   1.000000
    729         -5.476510   1.000000
    730         -5.476475   1.000000
    731         -5.460550   1.000000
    732         -5.460444   1.000000
    733         -5.460399   1.000000
    734         -5.460310   1.000000
    735         -5.455469   1.000000
    736         -5.455396   1.000000
    737         -5.455386   1.000000
    738         -5.455298   1.000000
    739         -5.446741   1.000000
    740         -5.446668   1.000000
    741         -5.444894   1.000000
    742         -5.444881   1.000000
    743         -5.444842   1.000000
    744         -5.444750   1.000000
    745         -5.443749   1.000000
    746         -5.443684   1.000000
    747         -5.441637   1.000000
    748         -5.441469   1.000000
    749         -5.430870   1.000000
    750         -5.430769   1.000000
    751         -5.420020   1.000000
    752         -5.419953   1.000000
    753         -5.419910   1.000000
    754         -5.419844   1.000000
    755         -5.419801   1.000000
    756         -5.418306   1.000000
    757         -5.418221   1.000000
    758         -5.392966   1.000000
    759         -5.392758   1.000000
    760         -5.387412   1.000000
    761         -5.387375   1.000000
    762         -5.387344   1.000000
    763         -5.387316   1.000000
    764         -5.347454   1.000000
    765         -5.347346   1.000000
    766         -5.347297   1.000000
    767         -5.347259   1.000000
    768         -5.275091   1.000000
    769         -5.212250   1.000000
    770         -5.212196   1.000000
    771         -5.212130   1.000000
    772         -5.212098   1.000000
    773         -5.181725   1.000000
    774         -5.181693   1.000000
    775         -5.142430   1.000000
    776         -5.142301   1.000000
    777         -5.142272   1.000000
    778         -5.142152   1.000000
    779         -5.136258   1.000000
    780         -5.136143   1.000000
    781         -5.136085   1.000000
    782         -5.136065   1.000000
    783         -5.127031   1.000000
    784         -5.127001   1.000000
    785         -5.126842   1.000000
    786         -5.126765   1.000000
    787         -5.101245   1.000000
    788         -5.101194   1.000000
    789         -5.100097   1.000000
    790         -5.099983   1.000000
    791         -5.099964   1.000000
    792         -5.099896   1.000000
    793         -5.086241   1.000000
    794         -5.086179   1.000000
    795         -5.086128   1.000000
    796         -5.085903   1.000000
    797         -5.010997   1.000000
    798         -5.010835   1.000000
    799         -5.001632   1.000000
    800         -4.992457   1.000000
    801         -4.992350   1.000000
    802         -4.992307   1.000000
    803         -4.992097   1.000000