 vasp.6.4.1 05Apr23 (build Jun  6 2023 14:36:51) complex                         
 executed on        HPECrayEX_GCC date 2024.08.20  14:11:14
 running  256 mpi-ranks, with    1 threads/rank, on    2 nodes
 distrk:  each k-point on  128 cores,    2 groups
 distr:  one band on NCORE=  32 cores,    4 groups


--------------------------------------------------------------------------------------------------------


 INCAR:
   ALGO = Conjugate
   KPAR = 2
   NCORE = 32
   PREC = Accurate
   EDIFF = 1E-7
   ENCUT = 1000
   ISMEAR = 0
   SIGMA = 0.01
   ISIF = 0
   GGA = PE
   IVDW = 202
   LVDWEXPANSION = .TRUE.
   LWAVE = .FALSE.
   LCHARGE = .FALSE.
   SYMPREC = 1E-7
   LWAVE = .FALSE.
   LCHARGE = .FALSE.

 POTCAR:    PAW_PBE C_h 06Feb2004                 
 POTCAR:    PAW_PBE N_h 06Feb2004                 
 POTCAR:    PAW_PBE H_h 06Feb2004                 
 POTCAR:    PAW_PBE C_h 06Feb2004                 
   VRHFIN =C: s2p2                                                                                  
   LEXCH  = PE                                                                                      
   EATOM  =   147.1560 eV,   10.8157 Ry                                                             
                                                                                                    
   TITEL  = PAW_PBE C_h 06Feb2004                                                                   
   LULTRA =        F    use ultrasoft PP ?                                                          
   IUNSCR =        1    unscreen: 0-lin 1-nonlin 2-no                                               
   RPACOR =    0.800    partial core radius                                                         
   POMASS =   12.011; ZVAL   =    4.000    mass and valenz                                          
   RCORE  =    1.100    outmost cutoff radius                                                       
   RWIGS  =    1.630; RWIGS  =    0.863    wigner-seitz radius (au A)                               
   ENMAX  =  700.000; ENMIN  =  500.000 eV                                                          
   ICORE  =        2    local potential                                                             
   LCOR   =        T    correct aug charges                                                         
   LPAW   =        T    paw PP                                                                      
   EAUG   =  946.768                                                                                
   DEXC   =    0.000                                                                                
   RMAX   =    1.128    core radius for proj-oper                                                   
   RAUG   =    1.300    factor for augmentation sphere                                              
   RDEP   =    1.162    radius for radial grids                                                     
   RDEPT  =    1.088    core radius for aug-charge                                                  
                                                                                                    
   Atomic configuration                                                                             
    4 entries                                                                                       
     n  l   j            E        occ.                                                              
     1  0  0.50      -273.3789   2.0000                                                             
     2  0  0.50       -13.7508   2.0000                                                             
     2  1  0.50        -5.2854   2.0000                                                             
     3  2  1.50        -5.4423   0.0000                                                             
   Description                                                                                      
     l       E           TYP  RCUT    TYP  RCUT                                                     
     0    -13.7508458     23  1.100                                                                 
     0     -8.2022199     23  1.100                                                                 
     1     -5.2854383     23  1.100                                                                 
     1      1.1560700     23  1.100                                                                 
     2     -5.4423304      7  1.100                                                                 
  local pseudopotential read in
  partial core-charges read in
  partial kinetic energy density read in
  atomic valenz-charges read in
  non local Contribution for L=           0  read in
    real space projection operators read in
  non local Contribution for L=           0  read in
    real space projection operators read in
  non local Contribution for L=           1  read in
    real space projection operators read in
  non local Contribution for L=           1  read in
    real space projection operators read in
    PAW grid and wavefunctions read in

   number of l-projection  operators is LMAX  =           4
   number of lm-projection operators is LMMAX =           8

 POTCAR:    PAW_PBE N_h 06Feb2004                 
   VRHFIN =N: s2p3                                                                                  
   LEXCH  = PE                                                                                      
   EATOM  =   264.5486 eV,   19.4438 Ry                                                             
                                                                                                    
   TITEL  = PAW_PBE N_h 06Feb2004                                                                   
   LULTRA =        F    use ultrasoft PP ?                                                          
   IUNSCR =        1    unscreen: 0-lin 1-nonlin 2-no                                               
   RPACOR =    0.800    partial core radius                                                         
   POMASS =   14.001; ZVAL   =    5.000    mass and valenz                                          
   RCORE  =    1.100    outmost cutoff radius                                                       
   RWIGS  =    1.480; RWIGS  =    0.783    wigner-seitz radius (au A)                               
   ENMAX  =  700.000; ENMIN  =  500.000 eV                                                          
   ICORE  =        2    local potential                                                             
   LCOR   =        T    correct aug charges                                                         
   LPAW   =        T    paw PP                                                                      
   EAUG   =  904.640                                                                                
   DEXC   =    0.000                                                                                
   RMAX   =    1.127    core radius for proj-oper                                                   
   RAUG   =    1.300    factor for augmentation sphere                                              
   RDEP   =    1.115    radius for radial grids                                                     
   RDEPT  =    1.106    core radius for aug-charge                                                  
                                                                                                    
   Atomic configuration                                                                             
    4 entries                                                                                       
     n  l   j            E        occ.                                                              
     1  0  0.50      -384.7179   2.0000                                                             
     2  0  0.50       -18.5828   2.0000                                                             
     2  1  0.50        -7.0898   3.0000                                                             
     3  2  1.50        -6.8029   0.0000                                                             
   Description                                                                                      
     l       E           TYP  RCUT    TYP  RCUT                                                     
     0    -18.5828117     23  1.100                                                                 
     0    -15.0750597     23  1.100                                                                 
     1     -7.0897851     23  1.100                                                                 
     1     -1.9663412     23  1.100                                                                 
     2     -6.8029130      7  1.100                                                                 
  local pseudopotential read in
  partial core-charges read in
  partial kinetic energy density read in
  kinetic energy density of atom read in
  atomic valenz-charges read in
  non local Contribution for L=           0  read in
    real space projection operators read in
  non local Contribution for L=           0  read in
    real space projection operators read in
  non local Contribution for L=           1  read in
    real space projection operators read in
  non local Contribution for L=           1  read in
    real space projection operators read in
    PAW grid and wavefunctions read in

   number of l-projection  operators is LMAX  =           4
   number of lm-projection operators is LMMAX =           8

 POTCAR:    PAW_PBE H_h 06Feb2004                 
   VRHFIN =H: ultrasoft test                                                                        
   LEXCH  = PE                                                                                      
   EATOM  =    12.4884 eV,    0.9179 Ry                                                             
                                                                                                    
   TITEL  = PAW_PBE H_h 06Feb2004                                                                   
   LULTRA =        F    use ultrasoft PP ?                                                          
   IUNSCR =        0    unscreen: 0-lin 1-nonlin 2-no                                               
   RPACOR =    0.000    partial core radius                                                         
   POMASS =    1.000; ZVAL   =    1.000    mass and valenz                                          
   RCORE  =    0.800    outmost cutoff radius                                                       
   RWIGS  =    0.700; RWIGS  =    0.370    wigner-seitz radius (au A)                               
   ENMAX  =  700.000; ENMIN  =  350.000 eV                                                          
   RCLOC  =    0.701    cutoff for local pot                                                        
   LCOR   =        T    correct aug charges                                                         
   LPAW   =        T    paw PP                                                                      
   EAUG   = 1000.000                                                                                
   RMAX   =    0.819    core radius for proj-oper                                                   
   RAUG   =    1.000    factor for augmentation sphere                                              
   RDEP   =    0.817    radius for radial grids                                                     
   RDEPT  =    0.817    core radius for aug-charge                                                  
                                                                                                    
   Atomic configuration                                                                             
    2 entries                                                                                       
     n  l   j            E        occ.                                                              
     1  0  0.50        -6.4927   1.0000                                                             
     2  1  0.50        -3.4015   0.0000                                                             
   Description                                                                                      
     l       E           TYP  RCUT    TYP  RCUT                                                     
     0     -6.4927493     23  0.800                                                                 
     0      6.8029130     23  0.800                                                                 
     1     -6.8029130     23  0.800                                                                 
  local pseudopotential read in
  atomic valenz-charges read in
  non local Contribution for L=           0  read in
    real space projection operators read in
  non local Contribution for L=           0  read in
    real space projection operators read in
  non local Contribution for L=           1  read in
    real space projection operators read in
    PAW grid and wavefunctions read in

   number of l-projection  operators is LMAX  =           3
   number of lm-projection operators is LMMAX =           5

 -----------------------------------------------------------------------------
|                                                                             |
|               ----> ADVICE to this user running VASP <----                  |
|                                                                             |
|     You have a (more or less) 'large supercell' and for larger cells it     |
|     might be more efficient to use real-space projection operators.         |
|     Therefore, try LREAL= Auto in the INCAR file.                           |
|     Mind: For very accurate calculation, you might also keep the            |
|     reciprocal projection scheme (i.e. LREAL=.FALSE.).                      |
|                                                                             |
 -----------------------------------------------------------------------------

  PAW_PBE C_h 06Feb2004                 :
 energy of atom  1       EATOM= -147.1560
 kinetic energy error for atom=    0.0031 (will be added to EATOM!!)
  PAW_PBE N_h 06Feb2004                 :
 energy of atom  2       EATOM= -264.5486
 kinetic energy error for atom=    0.0081 (will be added to EATOM!!)
  PAW_PBE H_h 06Feb2004                 :
 energy of atom  3       EATOM=  -12.4884
 kinetic energy error for atom=    0.0006 (will be added to EATOM!!)


 POSCAR:  C  N  H
  positions in cartesian coordinates
  No initial velocities read in
 exchange correlation table for  LEXCH =        8
   RHO(1)=    0.500       N(1)  =     2000
   RHO(2)=  100.500       N(2)  =     4000

 VTST: version 4.1, (05/19/21)

 CHAIN: initializing optimizer
 
 OPT: Using VASP Dynamics algorithm
 CHAIN: Read ICHAIN            0

 POSCAR:  C  N  H
  positions in cartesian coordinates
  No initial velocities read in



--------------------------------------------------------------------------------------------------------


 ion  position               nearest neighbor table
   1  0.156  0.217  0.179-  25 1.08  17 1.33  13 1.36
   2  0.844  0.783  0.821-  26 1.08  18 1.33  14 1.36
   3  0.844  0.717  0.321-  27 1.08  19 1.33  15 1.36
   4  0.156  0.283  0.679-  28 1.08  20 1.33  16 1.36
   5  0.309  0.554  0.299-  29 1.08   9 1.37  17 1.38
   6  0.691  0.446  0.701-  30 1.08  10 1.37  18 1.38
   7  0.691  0.054  0.201-  31 1.08  11 1.37  19 1.38
   8  0.309  0.946  0.799-  32 1.08  12 1.37  20 1.38
   9  0.317  0.548  0.162-  33 1.08   5 1.37  13 1.38
  10  0.683  0.452  0.838-  34 1.08   6 1.37  14 1.38
  11  0.683  0.048  0.338-  35 1.08   7 1.37  15 1.38
  12  0.317  0.952  0.662-  36 1.08   8 1.37  16 1.38
  13  0.219  0.333  0.087-  21 1.05   1 1.36   9 1.38
  14  0.781  0.667  0.913-  22 1.05   2 1.36  10 1.38
  15  0.781  0.833  0.413-  23 1.05   3 1.36  11 1.38
  16  0.219  0.167  0.587-  24 1.05   4 1.36  12 1.38
  17  0.208  0.346  0.309-   1 1.33   5 1.38
  18  0.792  0.654  0.691-   2 1.33   6 1.38
  19  0.792  0.846  0.191-   3 1.33   7 1.38
  20  0.208  0.154  0.809-   4 1.33   8 1.38
  21  0.204  0.266  0.980-  13 1.05
  22  0.796  0.734  0.020-  14 1.05
  23  0.796  0.766  0.520-  15 1.05
  24  0.204  0.234  0.480-  16 1.05
  25  0.076  0.042  0.150-   1 1.08
  26  0.924  0.958  0.850-   2 1.08
  27  0.924  0.542  0.350-   3 1.08
  28  0.076  0.458  0.650-   4 1.08
  29  0.370  0.694  0.390-   5 1.08
  30  0.630  0.306  0.610-   6 1.08
  31  0.630  0.194  0.110-   7 1.08
  32  0.370  0.806  0.890-   8 1.08
  33  0.383  0.675  0.114-   9 1.08
  34  0.617  0.325  0.886-  10 1.08
  35  0.617  0.175  0.386-  11 1.08
  36  0.383  0.825  0.614-  12 1.08

  LATTYP: Found a simple monoclinic cell.
 ALAT       =     7.5820000000
 B/A-ratio  =     0.7083882881
 C/A-ratio  =     1.1899740303
 COS(beta)  =    -0.3146286263
  
  Lattice vectors:
  
 A1 = (   7.5820000000,   0.0000000000,   0.0000000000)
 A2 = (   0.0000000000,  -5.3710000000,   0.0000000000)
 A3 = (  -2.8387000000,   0.0000000000,  -8.5641800000)


Analysis of symmetry for initial positions (statically):
=====================================================================
 Subroutine PRICEL returns:
 Original cell was already a primitive cell.
 

 Routine SETGRP: Setting up the symmetry group for a 
 simple monoclinic supercell.


 Subroutine GETGRP returns: Found  2 space group operations
 (whereof  2 operations were pure point group operations)
 out of a pool of  4 trial point group operations.


The static configuration has the point symmetry S_2 .


Analysis of symmetry for dynamics (positions and initial velocities):
=====================================================================
 Subroutine PRICEL returns:
 Original cell was already a primitive cell.
 

 Routine SETGRP: Setting up the symmetry group for a 
 simple monoclinic supercell.


 Subroutine GETGRP returns: Found  2 space group operations
 (whereof  2 operations were pure point group operations)
 out of a pool of  4 trial point group operations.


The dynamic configuration has the point symmetry S_2 .


 Subroutine INISYM returns: Found  2 space group operations
 (whereof  2 operations are pure point group operations),
 and found     1 'primitive' translations


----------------------------------------------------------------------------------------

                                     Primitive cell                                     

  volume of cell :     348.7584

  direct lattice vectors                    reciprocal lattice vectors
     7.582000000  0.000000000  0.000000000     0.131891322 -0.000000000  0.073048454
     0.000000000  5.371000000  0.000000000     0.000000000  0.186185068 -0.000000000
    -4.743300000  0.000000000  8.564180000     0.000000000  0.000000000  0.116765411

  length of vectors
     7.582000000  5.371000000  9.789998670     0.150769351  0.186185068  0.116765411

  position of ions in fractional coordinates (direct lattice)
     0.156416198  0.217487408  0.178915737
     0.843583803  0.782512588  0.821084266
     0.843583870  0.717487415  0.321084298
     0.156416134  0.282512551  0.678915696
     0.308916486  0.553856359  0.299282603
     0.691083522  0.446143649  0.700717377
     0.691083615  0.053856372  0.200717384
     0.308916389  0.946143592  0.799282601
     0.316818224  0.547687641  0.161950642
     0.683181789  0.452312328  0.838049340
     0.683181872  0.047687723  0.338049379
     0.316818158  0.952312268  0.661950620
     0.218803630  0.332944431  0.086653585
     0.781196381  0.667055528  0.913346413
     0.781196445  0.832944447  0.413346424
     0.218803585  0.167055547  0.586653579
     0.208188638  0.346231089  0.309336190
     0.791811364  0.653768937  0.690663804
     0.791811420  0.846231032  0.190663810
     0.208188570  0.153768915  0.809336177
     0.204180763  0.266496945  0.980432809
     0.795819241  0.733503001  0.019567191
     0.795819287  0.766497008  0.519567197
     0.204180742  0.233503002  0.480432808
     0.076036641  0.041789653  0.150044107
     0.923963358  0.958210347  0.849955907
     0.923963407  0.541789636  0.349955910
     0.076036593  0.458210330  0.650044087
     0.369658204  0.693772397  0.390318328
     0.630341810  0.306227623  0.609681645
     0.630341871  0.193772369  0.109681681
     0.369658131  0.806227585  0.890318302
     0.383478735  0.674787196  0.113944208
     0.616521286  0.325212750  0.886055769
     0.616521382  0.174787247  0.386055791
     0.383478661  0.825212757  0.613944208

  ion indices of the primitive-cell ions
   primitive index   ion index
                 1           1
                 2           2
                 3           3
                 4           4
                 5           5
                 6           6
                 7           7
                 8           8
                 9           9
                10          10
                11          11
                12          12
                13          13
                14          14
                15          15
                16          16
                17          17
                18          18
                19          19
                20          20
                21          21
                22          22
                23          23
                24          24
                25          25
                26          26
                27          27
                28          28
                29          29
                30          30
                31          31
                32          32
                33          33
                34          34
                35          35
                36          36

----------------------------------------------------------------------------------------



 KPOINTS: auto                                    

Automatic generation of k-mesh.
 Grid dimensions read from file:
 generate k-points for:    4    5    3

 Generating k-lattice:

  Cartesian coordinates                     Fractional coordinates (reciprocal lattice)
     0.032972830 -0.000000000  0.018262113     0.250000000  0.000000000 -0.000000000
     0.000000000  0.037237014 -0.000000000     0.000000000  0.200000000  0.000000000
     0.000000000  0.000000000  0.038921804     0.000000000  0.000000000  0.333333333

  Length of vectors
     0.037692338  0.037237014  0.038921804

  Shift w.r.t. Gamma in fractional coordinates (k-lattice)
     0.000000000  0.000000000  0.000000000

 
 Subroutine IBZKPT returns following result:
 ===========================================
 
 Found     31 irreducible k-points:
 
 Following reciprocal coordinates:
            Coordinates               Weight
  0.000000  0.000000  0.000000      1.000000
  0.250000  0.000000  0.000000      2.000000
  0.500000  0.000000  0.000000      1.000000
  0.000000  0.200000  0.000000      2.000000
  0.250000  0.200000  0.000000      2.000000
 -0.250000  0.200000  0.000000      2.000000
  0.500000  0.200000  0.000000      2.000000
  0.000000  0.400000  0.000000      2.000000
  0.250000  0.400000  0.000000      2.000000
 -0.250000  0.400000  0.000000      2.000000
  0.500000  0.400000  0.000000      2.000000
  0.000000  0.000000  0.333333      2.000000
  0.250000  0.000000  0.333333      2.000000
  0.500000  0.000000  0.333333      2.000000
 -0.250000  0.000000  0.333333      2.000000
  0.000000  0.200000  0.333333      2.000000
  0.000000  0.200000 -0.333333      2.000000
  0.250000  0.200000  0.333333      2.000000
 -0.250000  0.200000 -0.333333      2.000000
  0.500000  0.200000  0.333333      2.000000
  0.500000  0.200000 -0.333333      2.000000
 -0.250000  0.200000  0.333333      2.000000
  0.250000  0.200000 -0.333333      2.000000
  0.000000  0.400000  0.333333      2.000000
  0.000000  0.400000 -0.333333      2.000000
  0.250000  0.400000  0.333333      2.000000
 -0.250000  0.400000 -0.333333      2.000000
  0.500000  0.400000  0.333333      2.000000
  0.500000  0.400000 -0.333333      2.000000
 -0.250000  0.400000  0.333333      2.000000
  0.250000  0.400000 -0.333333      2.000000
 
 Following cartesian coordinates:
            Coordinates               Weight
  0.000000  0.000000  0.000000      1.000000
  0.032973  0.000000  0.018262      2.000000
  0.065946  0.000000  0.036524      1.000000
  0.000000  0.037237  0.000000      2.000000
  0.032973  0.037237  0.018262      2.000000
 -0.032973  0.037237 -0.018262      2.000000
  0.065946  0.037237  0.036524      2.000000
  0.000000  0.074474  0.000000      2.000000
  0.032973  0.074474  0.018262      2.000000
 -0.032973  0.074474 -0.018262      2.000000
  0.065946  0.074474  0.036524      2.000000
  0.000000  0.000000  0.038922      2.000000
  0.032973  0.000000  0.057184      2.000000
  0.065946  0.000000  0.075446      2.000000
 -0.032973  0.000000  0.020660      2.000000
  0.000000  0.037237  0.038922      2.000000
  0.000000  0.037237 -0.038922      2.000000
  0.032973  0.037237  0.057184      2.000000
 -0.032973  0.037237 -0.057184      2.000000
  0.065946  0.037237  0.075446      2.000000
  0.065946  0.037237 -0.002398      2.000000
 -0.032973  0.037237  0.020660      2.000000
  0.032973  0.037237 -0.020660      2.000000
  0.000000  0.074474  0.038922      2.000000
  0.000000  0.074474 -0.038922      2.000000
  0.032973  0.074474  0.057184      2.000000
 -0.032973  0.074474 -0.057184      2.000000
  0.065946  0.074474  0.075446      2.000000
  0.065946  0.074474 -0.002398      2.000000
 -0.032973  0.074474  0.020660      2.000000
  0.032973  0.074474 -0.020660      2.000000
 


--------------------------------------------------------------------------------------------------------




 Dimension of arrays:
   k-points           NKPTS =     31   k-points in BZ     NKDIM =     31   number of bands    NBANDS=     72
   number of dos      NEDOS =    301   number of ions     NIONS =     36
   non local maximal  LDIM  =      4   non local SUM 2l+1 LMDIM =      8
   total plane-waves  NPLWV = 483840
   max r-space proj   IRMAX =      1   max aug-charges    IRDMAX=  10052
   dimension x,y,z NGX =    80 NGY =   56 NGZ =  108
   dimension x,y,z NGXF=   160 NGYF=  112 NGZF=  216
   support grid    NGXF=   160 NGYF=  112 NGZF=  216
   ions per type =              12   8  16
   NGX,Y,Z   is equivalent  to a cutoff of  17.54, 17.33, 18.34 a.u.
   NGXF,Y,Z  is equivalent  to a cutoff of  35.08, 34.67, 36.68 a.u.

 SYSTEM =  unknown system                          
 POSCAR =   C  N  H                                

 Startparameter for this run:
   NWRITE =      2    write-flag & timer
   PREC   = accura    normal or accurate (medium, high low for compatibility)
   ISTART =      0    job   : 0-new  1-cont  2-samecut
   ICHARG =      2    charge: 1-file 2-atom 10-const
   ISPIN  =      1    spin polarized calculation?
   LNONCOLLINEAR =      F non collinear calculations
   LSORBIT =      F    spin-orbit coupling
   INIWAV =      1    electr: 0-lowe 1-rand  2-diag
   LASPH  =      F    aspherical Exc in radial PAW
 Electronic Relaxation 1
   ENCUT  = 1000.0 eV  73.50 Ry    8.57 a.u.  19.55 13.85 25.24*2*pi/ulx,y,z
   ENINI  = 1000.0     initial cutoff
   ENAUG  = 1000.0 eV  augmentation charge cutoff
   NELM   =     60;   NELMIN=  2; NELMDL= -5     # of ELM steps 
   EDIFF  = 0.1E-06   stopping-criterion for ELM
   LREAL  =      F    real-space projection
   NLSPLINE    = F    spline interpolate recip. space projectors
   LCOMPAT=      F    compatible to vasp.4.4
   GGA_COMPAT  = T    GGA compatible to vasp.4.4-vasp.4.6
   LMAXPAW     = -100 max onsite density
   LMAXMIX     =    2 max onsite mixed and CHGCAR
   VOSKOWN=      0    Vosko Wilk Nusair interpolation
   ROPT   =    0.00000   0.00000   0.00000
 Ionic relaxation
   EDIFFG = 0.1E-05   stopping-criterion for IOM
   NSW    =      0    number of steps for IOM
   NBLOCK =      1;   KBLOCK =      1    inner block; outer block 
   IBRION =     -1    ionic relax: 0-MD 1-quasi-New 2-CG
   NFREE  =      0    steps in history (QN), initial steepest desc. (CG)
   ISIF   =      0    stress and relaxation
   IWAVPR =     10    prediction:  0-non 1-charg 2-wave 3-comb
   ISYM   =      2    0-nonsym 1-usesym 2-fastsym
   LCORR  =      T    Harris-Foulkes like correction to forces

   POTIM  = 0.5000    time-step for ionic-motion
   TEIN   =    0.0    initial temperature
   TEBEG  =    0.0;   TEEND  =   0.0 temperature during run
   SMASS  =  -3.00    Nose mass-parameter (am)
   estimated Nose-frequenzy (Omega)   =  0.10E-29 period in steps = 0.13E+47 mass=  -0.131E-26a.u.
   SCALEE = 1.0000    scale energy and forces
   NPACO  =    256;   APACO  = 10.0  distance and # of slots for P.C.
   PSTRESS=    0.0 pullay stress

  Mass of Ions in am
   POMASS =  12.01 14.00  1.00
  Ionic Valenz
   ZVAL   =   4.00  5.00  1.00
  Atomic Wigner-Seitz radii
   RWIGS  =  -1.00 -1.00 -1.00
  virtual crystal weights 
   VCA    =   1.00  1.00  1.00
   NELECT =     104.0000    total number of electrons
   NUPDOWN=      -1.0000    fix difference up-down

 DOS related values:
   EMIN   =  10.00;   EMAX   =-10.00  energy-range for DOS
   EFERMI =   0.00;   METHOD = LEGACY      
   ISMEAR =     0;   SIGMA  =   0.01  broadening in eV -4-tet -1-fermi 0-gaus

 Electronic relaxation 2 (details)
   IALGO  =     58    algorithm
   LDIAG  =      T    sub-space diagonalisation (order eigenvalues)
   LSUBROT=      F    optimize rotation matrix (better conditioning)
   TURBO    =      0    0=normal 1=particle mesh
   IRESTART =      0    0=no restart 2=restart with 2 vectors
   NREBOOT  =      0    no. of reboots
   NMIN     =      0    reboot dimension
   EREF     =   0.00    reference energy to select bands
   IMIX   =      4    mixing-type and parameters
     AMIX     =   0.40;   BMIX     =  1.00
     AMIX_MAG =   1.60;   BMIX_MAG =  1.00
     AMIN     =   0.10
     WC   =   100.;   INIMIX=   1;  MIXPRE=   1;  MAXMIX= -45

 Intra band minimization:
   WEIMIN = 0.0000     energy-eigenvalue tresh-hold
   EBREAK =  0.35E-09  absolut break condition
   DEPER  =   0.30     relativ break condition  

   TIME   =   0.40     timestep for ELM

  volume/ion in A,a.u.               =       9.69        65.38
  Fermi-wavevector in a.u.,A,eV,Ry     =   1.093732  2.066854 16.275974  1.196250
  Thomas-Fermi vector in A             =   2.230023

 Write flags
   LWAVE        =      F    write WAVECAR
   LDOWNSAMPLE  =      F    k-point downsampling of WAVECAR
   LCHARG       =      T    write CHGCAR
   LVTOT        =      F    write LOCPOT, total local potential
   LVHAR        =      F    write LOCPOT, Hartree potential only
   LELF         =      F    write electronic localiz. function (ELF)
   LORBIT       =      0    0 simple, 1 ext, 2 COOP (PROOUT), +10 PAW based schemes


 Dipole corrections
   LMONO  =      F    monopole corrections only (constant potential shift)
   LDIPOL =      F    correct potential (dipole corrections)
   IDIPOL =      0    1-x, 2-y, 3-z, 4-all directions 
   EPSILON=  1.0000000 bulk dielectric constant

 Exchange correlation treatment:
   GGA     =    PE    GGA type
   LEXCH   =     8    internal setting for exchange type
   LIBXC   =     F    Libxc                    
   VOSKOWN =     0    Vosko Wilk Nusair interpolation
   LHFCALC =     F    Hartree Fock is set to
   LHFONE  =     F    Hartree Fock one center treatment
   AEXX    =    0.0000 exact exchange contribution

 Linear response parameters
   LEPSILON=     F    determine dielectric tensor
   LRPA    =     F    only Hartree local field effects (RPA)
   LNABLA  =     F    use nabla operator in PAW spheres
   LVEL    =     F    velocity operator in full k-point grid
   CSHIFT  =0.1000    complex shift for real part using Kramers Kronig
   OMEGAMAX=  -1.0    maximum frequency
   DEG_THRESHOLD= 0.2000000E-02 threshold for treating states as degnerate
   RTIME   =   -0.100 relaxation time in fs
  (WPLASMAI=    0.000 imaginary part of plasma frequency in eV, 0.658/RTIME)
   DFIELD  = 0.0000000 0.0000000 0.0000000 field for delta impulse in time

  Optional k-point grid parameters
   LKPOINTS_OPT  =     F    use optional k-point grid
   KPOINTS_OPT_MODE=     1    mode for optional k-point grid

 Orbital magnetization related:
   ORBITALMAG=     F  switch on orbital magnetization
   LCHIMAG   =     F  perturbation theory with respect to B field
   DQ        =  0.001000  dq finite difference perturbation B field
   LLRAUG    =     F  two centre corrections for induced B field
   LBONE     =     F  B-component reconstruction in AE one-centre
   LVGVCALC  =     T  calculate vGv susceptibility
   LVGVAPPL  =     F  apply vGv susceptibility instead of pGv for G=0

 Random number generation:
   RANDOM_GENERATOR = DEFAULT
   PCG_SEED         = not used


--------------------------------------------------------------------------------------------------------


 Static calculation
 charge density and potential will be updated during run
 non-spin polarized calculation
 Conjugate gradient for all bands (Freysoldt, et al. PRB 79, 241103 (2009))
 preconditioned conjugated gradient                                        
 perform sub-space diagonalisation
    before iterative eigenvector-optimisation
 modified Broyden-mixing scheme, WC =      100.0
 initial mixing is a Kerker type mixing with AMIX =  0.4000 and BMIX =      1.0000
 Hartree-type preconditioning will be used
 using additional bands           20
 reciprocal scheme for non local part
 use partial core corrections
 no Harris-corrections to forces 
 use gradient corrections 
 use of overlap-Matrix (Vanderbilt PP)
 Gauss-broadening in eV      SIGMA  =   0.01


--------------------------------------------------------------------------------------------------------


  energy-cutoff  :     1000.00
  volume of cell :      348.76
      direct lattice vectors                 reciprocal lattice vectors
     7.582000000  0.000000000  0.000000000     0.131891322 -0.000000000  0.073048454
     0.000000000  5.371000000  0.000000000     0.000000000  0.186185068 -0.000000000
    -4.743300000  0.000000000  8.564180000     0.000000000  0.000000000  0.116765411

  length of vectors
     7.582000000  5.371000000  9.789998670     0.150769351  0.186185068  0.116765411



 k-points in units of 2pi/SCALE and weight: auto                                    
   0.00000000  0.00000000  0.00000000       0.017
   0.03297283  0.00000000  0.01826211       0.033
   0.06594566  0.00000000  0.03652423       0.017
   0.00000000  0.03723701  0.00000000       0.033
   0.03297283  0.03723701  0.01826211       0.033
  -0.03297283  0.03723701 -0.01826211       0.033
   0.06594566  0.03723701  0.03652423       0.033
   0.00000000  0.07447403  0.00000000       0.033
   0.03297283  0.07447403  0.01826211       0.033
  -0.03297283  0.07447403 -0.01826211       0.033
   0.06594566  0.07447403  0.03652423       0.033
   0.00000000  0.00000000  0.03892180       0.033
   0.03297283  0.00000000  0.05718392       0.033
   0.06594566  0.00000000  0.07544603       0.033
  -0.03297283  0.00000000  0.02065969       0.033
   0.00000000  0.03723701  0.03892180       0.033
   0.00000000  0.03723701 -0.03892180       0.033
   0.03297283  0.03723701  0.05718392       0.033
  -0.03297283  0.03723701 -0.05718392       0.033
   0.06594566  0.03723701  0.07544603       0.033
   0.06594566  0.03723701 -0.00239758       0.033
  -0.03297283  0.03723701  0.02065969       0.033
   0.03297283  0.03723701 -0.02065969       0.033
   0.00000000  0.07447403  0.03892180       0.033
   0.00000000  0.07447403 -0.03892180       0.033
   0.03297283  0.07447403  0.05718392       0.033
  -0.03297283  0.07447403 -0.05718392       0.033
   0.06594566  0.07447403  0.07544603       0.033
   0.06594566  0.07447403 -0.00239758       0.033
  -0.03297283  0.07447403  0.02065969       0.033
   0.03297283  0.07447403 -0.02065969       0.033

 k-points in reciprocal lattice and weights: auto                                    
   0.00000000  0.00000000  0.00000000       0.017
   0.25000000  0.00000000  0.00000000       0.033
   0.50000000  0.00000000  0.00000000       0.017
   0.00000000  0.20000000  0.00000000       0.033
   0.25000000  0.20000000  0.00000000       0.033
  -0.25000000  0.20000000  0.00000000       0.033
   0.50000000  0.20000000  0.00000000       0.033
   0.00000000  0.40000000  0.00000000       0.033
   0.25000000  0.40000000  0.00000000       0.033
  -0.25000000  0.40000000  0.00000000       0.033
   0.50000000  0.40000000  0.00000000       0.033
   0.00000000  0.00000000  0.33333333       0.033
   0.25000000  0.00000000  0.33333333       0.033
   0.50000000  0.00000000  0.33333333       0.033
  -0.25000000  0.00000000  0.33333333       0.033
   0.00000000  0.20000000  0.33333333       0.033
   0.00000000  0.20000000 -0.33333333       0.033
   0.25000000  0.20000000  0.33333333       0.033
  -0.25000000  0.20000000 -0.33333333       0.033
   0.50000000  0.20000000  0.33333333       0.033
   0.50000000  0.20000000 -0.33333333       0.033
  -0.25000000  0.20000000  0.33333333       0.033
   0.25000000  0.20000000 -0.33333333       0.033
   0.00000000  0.40000000  0.33333333       0.033
   0.00000000  0.40000000 -0.33333333       0.033
   0.25000000  0.40000000  0.33333333       0.033
  -0.25000000  0.40000000 -0.33333333       0.033
   0.50000000  0.40000000  0.33333333       0.033
   0.50000000  0.40000000 -0.33333333       0.033
  -0.25000000  0.40000000  0.33333333       0.033
   0.25000000  0.40000000 -0.33333333       0.033

 position of ions in fractional coordinates (direct lattice) 
   0.15641620  0.21748741  0.17891574
   0.84358380  0.78251259  0.82108427
   0.84358387  0.71748742  0.32108430
   0.15641613  0.28251255  0.67891570
   0.30891649  0.55385636  0.29928260
   0.69108352  0.44614365  0.70071738
   0.69108362  0.05385637  0.20071738
   0.30891639  0.94614359  0.79928260
   0.31681822  0.54768764  0.16195064
   0.68318179  0.45231233  0.83804934
   0.68318187  0.04768772  0.33804938
   0.31681816  0.95231227  0.66195062
   0.21880363  0.33294443  0.08665359
   0.78119638  0.66705553  0.91334641
   0.78119645  0.83294445  0.41334642
   0.21880358  0.16705555  0.58665358
   0.20818864  0.34623109  0.30933619
   0.79181136  0.65376894  0.69066380
   0.79181142  0.84623103  0.19066381
   0.20818857  0.15376891  0.80933618
   0.20418076  0.26649694  0.98043281
   0.79581924  0.73350300  0.01956719
   0.79581929  0.76649701  0.51956720
   0.20418074  0.23350300  0.48043281
   0.07603664  0.04178965  0.15004411
   0.92396336  0.95821035  0.84995591
   0.92396341  0.54178964  0.34995591
   0.07603659  0.45821033  0.65004409
   0.36965820  0.69377240  0.39031833
   0.63034181  0.30622762  0.60968165
   0.63034187  0.19377237  0.10968168
   0.36965813  0.80622758  0.89031830
   0.38347873  0.67478720  0.11394421
   0.61652129  0.32521275  0.88605577
   0.61652138  0.17478725  0.38605579
   0.38347866  0.82521276  0.61394421

 position of ions in cartesian coordinates  (Angst):
   0.33729660  1.16812487  1.53226658
   2.50140339  4.20287511  7.03191345
   4.87305375  3.85362491  2.74982372
  -2.03435370  1.51737491  5.81435623
   0.92261763  2.97476250  2.56311008
   1.91608253  2.39623754  6.00106975
   4.28773320  0.28926257  1.71897980
  -1.44903310  5.08173723  6.84520007
   1.63393529  2.94163032  1.38697445
   1.20476490  2.42936951  7.17720539
   3.57641534  0.25613076  2.89511573
  -0.73771510  5.11486919  5.66906426
   1.24794517  1.78824454  0.74211690
   1.59075492  3.58275524  7.82206308
   3.96240535  4.47374463  3.53997318
  -1.12370514  0.89725534  5.02420685
   0.11121190  1.85960718  2.64921081
   2.72748814  3.51139296  5.91496913
   5.09913854  4.54510687  1.63287919
  -2.26043855  0.82589284  6.93130070
  -3.10238840  1.43135509  8.39660305
   5.94108843  3.93964462  0.16757695
   3.56943875  4.11685543  4.44966700
  -0.73073855  1.25414462  4.11451304
  -0.13519440  0.22445223  1.28500474
   2.97389433  5.14654777  7.27917538
   5.34554468  2.90995214  2.99708540
  -2.50684467  2.46104768  5.56709457
   0.95135157  3.72625155  3.34275642
   1.88734865  1.64474856  5.22142335
   4.25899894  1.04075140  0.93933366
  -1.42029886  4.33024836  7.62484620
   2.36706420  3.62428203  0.97583871
   0.47163606  1.74671768  7.58834109
   2.84328669  0.93878230  3.30625128
  -0.00458635  4.43221772  5.25792871



--------------------------------------------------------------------------------------------------------


 k-point   1 :   0.0000 0.0000 0.0000  plane waves:   25025
 k-point   2 :   0.2500 0.0000 0.0000  plane waves:   25026
 k-point   3 :   0.5000 0.0000 0.0000  plane waves:   25070
 k-point   4 :   0.0000 0.2000 0.0000  plane waves:   25058
 k-point   5 :   0.2500 0.2000 0.0000  plane waves:   25003
 k-point   6 :  -0.2500 0.2000 0.0000  plane waves:   25003
 k-point   7 :   0.5000 0.2000 0.0000  plane waves:   25026
 k-point   8 :   0.0000 0.4000 0.0000  plane waves:   25074
 k-point   9 :   0.2500 0.4000 0.0000  plane waves:   25078
 k-point  10 :  -0.2500 0.4000 0.0000  plane waves:   25078
 k-point  11 :   0.5000 0.4000 0.0000  plane waves:   25036
 k-point  12 :   0.0000 0.0000 0.3333  plane waves:   25001
 k-point  13 :   0.2500 0.0000 0.3333  plane waves:   25054
 k-point  14 :   0.5000 0.0000 0.3333  plane waves:   25041
 k-point  15 :  -0.2500 0.0000 0.3333  plane waves:   25027
 k-point  16 :   0.0000 0.2000 0.3333  plane waves:   25063
 k-point  17 :   0.0000 0.2000-0.3333  plane waves:   25063
 k-point  18 :   0.2500 0.2000 0.3333  plane waves:   25037
 k-point  19 :  -0.2500 0.2000-0.3333  plane waves:   25037
 k-point  20 :   0.5000 0.2000 0.3333  plane waves:   25031
 k-point  21 :   0.5000 0.2000-0.3333  plane waves:   25031
 k-point  22 :  -0.2500 0.2000 0.3333  plane waves:   25036
 k-point  23 :   0.2500 0.2000-0.3333  plane waves:   25036
 k-point  24 :   0.0000 0.4000 0.3333  plane waves:   25055
 k-point  25 :   0.0000 0.4000-0.3333  plane waves:   25055
 k-point  26 :   0.2500 0.4000 0.3333  plane waves:   25061
 k-point  27 :  -0.2500 0.4000-0.3333  plane waves:   25061
 k-point  28 :   0.5000 0.4000 0.3333  plane waves:   25034
 k-point  29 :   0.5000 0.4000-0.3333  plane waves:   25034
 k-point  30 :  -0.2500 0.4000 0.3333  plane waves:   25049
 k-point  31 :   0.2500 0.4000-0.3333  plane waves:   25049

 maximum and minimum number of plane-waves per node :       802      765

 maximum number of plane-waves:     25078
 maximum index in each direction: 
   IXMAX=   19   IYMAX=   13   IZMAX=   25
   IXMIN=  -20   IYMIN=  -14   IZMIN=  -25


 parallel 3D FFT for wavefunctions:
    minimum data exchange during FFTs selected (reduces bandwidth)
 parallel 3D FFT for charge:
    minimum data exchange during FFTs selected (reduces bandwidth)


 total amount of memory used by VASP MPI-rank0    62704. kBytes
=======================================================================

   base      :      30000. kBytes
   nonl-proj :       5170. kBytes
   fftplans  :       2043. kBytes
   grid      :       3846. kBytes
   one-center:          6. kBytes
   wavefun   :      21639. kBytes

     INWAV:  cpu time      0.0014: real time      0.0017
 Broyden mixing: mesh for mixing (old mesh)
   NGX = 39   NGY = 27   NGZ = 51
  (NGX  =160   NGY  =112   NGZ  =216)
  gives a total of  53703 points

 initial charge density was supplied:
 charge density of overlapping atoms calculated
 number of electron     104.0000000 magnetization 
 keeping initial charge density in first step


--------------------------------------------------------------------------------------------------------


 Maximum index for augmentation-charges          500 (set IRDMAX)


--------------------------------------------------------------------------------------------------------


 First call to EWALD:  gamma=   0.252
 Maximum number of real-space cells 3x 3x 2
 Maximum number of reciprocal cells 3x 2x 4

    FEWALD:  cpu time      0.0023: real time      0.0023


--------------------------------------- Ionic step        1  -------------------------------------------




--------------------------------------- Iteration      1(   1)  ---------------------------------------


    POTLOK:  cpu time      0.0554: real time      0.0559
    SETDIJ:  cpu time      0.0061: real time      0.0062
    TRIAL :  cpu time      1.5409: real time      1.5431
    CORREC:  cpu time      0.0033: real time      0.0033
    --------------------------------------------
      LOOP:  cpu time      1.6167: real time      1.6195

 eigenvalue-minimisations  :  4464
 total energy-change (2. order) : 0.8444446E+03  (-0.7619742E+04)
 number of electron     104.0000000 magnetization 
 augmentation part      104.0000000 magnetization 

 Free energy of the ion-electron system (eV)
  ---------------------------------------------------
  alpha Z        PSCENC =        96.04543962
  Ewald energy   TEWEN  =     -1811.74766356
  -Hartree energ DENC   =     -1855.65973572
  -exchange      EXHF   =         0.00000000
  -V(xc)+E(xc)   XCENC  =       258.97875495
  PAW double counting   =      3044.31276443    -2970.73247858
  entropy T*S    EENTRO =        -0.00044560
  eigenvalues    EBANDS =         1.28448718
  atomic energy  EATOM  =      4081.96346187
  ---------------------------------------------------
  free energy    TOTEN  =       844.44458459 eV

  energy without entropy =      844.44503019  energy(sigma->0) =      844.44480739


--------------------------------------------------------------------------------------------------------




--------------------------------------- Iteration      1(   2)  ---------------------------------------


    TRIAL :  cpu time      1.9010: real time      1.9019
    CORREC:  cpu time      0.0004: real time      0.0004
    --------------------------------------------
      LOOP:  cpu time      1.9154: real time      1.9333

 eigenvalue-minimisations  :  6056
 total energy-change (2. order) :-0.9538773E+03  (-0.9166851E+03)
 number of electron     104.0000000 magnetization 
 augmentation part      104.0000000 magnetization 

 Free energy of the ion-electron system (eV)
  ---------------------------------------------------
  alpha Z        PSCENC =        96.04543962
  Ewald energy   TEWEN  =     -1811.74766356
  -Hartree energ DENC   =     -1855.65973572
  -exchange      EXHF   =         0.00000000
  -V(xc)+E(xc)   XCENC  =       258.97875495
  PAW double counting   =      3044.31276443    -2970.73247858
  entropy T*S    EENTRO =        -0.00000000
  eigenvalues    EBANDS =      -952.59322905
  atomic energy  EATOM  =      4081.96346187
  ---------------------------------------------------
  free energy    TOTEN  =      -109.43268604 eV

  energy without entropy =     -109.43268604  energy(sigma->0) =     -109.43268604


--------------------------------------------------------------------------------------------------------




--------------------------------------- Iteration      1(   3)  ---------------------------------------


    TRIAL :  cpu time      1.7414: real time      1.7423
    CORREC:  cpu time      0.0003: real time      0.0003
    --------------------------------------------
      LOOP:  cpu time      1.7563: real time      1.7734

 eigenvalue-minimisations  :  5536
 total energy-change (2. order) :-0.1370253E+03  (-0.1357363E+03)
 number of electron     104.0000000 magnetization 
 augmentation part      104.0000000 magnetization 

 Free energy of the ion-electron system (eV)
  ---------------------------------------------------
  alpha Z        PSCENC =        96.04543962
  Ewald energy   TEWEN  =     -1811.74766356
  -Hartree energ DENC   =     -1855.65973572
  -exchange      EXHF   =         0.00000000
  -V(xc)+E(xc)   XCENC  =       258.97875495
  PAW double counting   =      3044.31276443    -2970.73247858
  entropy T*S    EENTRO =        -0.00000000
  eigenvalues    EBANDS =     -1089.61848663
  atomic energy  EATOM  =      4081.96346187
  ---------------------------------------------------
  free energy    TOTEN  =      -246.45794362 eV

  energy without entropy =     -246.45794362  energy(sigma->0) =     -246.45794362


--------------------------------------------------------------------------------------------------------




--------------------------------------- Iteration      1(   4)  ---------------------------------------


    TRIAL :  cpu time      1.7664: real time      1.7673
    CORREC:  cpu time      0.0003: real time      0.0003
    --------------------------------------------
      LOOP:  cpu time      1.7966: real time      1.7979

 eigenvalue-minimisations  :  5680
 total energy-change (2. order) :-0.5095830E+01  (-0.5075176E+01)
 number of electron     104.0000000 magnetization 
 augmentation part      104.0000000 magnetization 

 Free energy of the ion-electron system (eV)
  ---------------------------------------------------
  alpha Z        PSCENC =        96.04543962
  Ewald energy   TEWEN  =     -1811.74766356
  -Hartree energ DENC   =     -1855.65973572
  -exchange      EXHF   =         0.00000000
  -V(xc)+E(xc)   XCENC  =       258.97875495
  PAW double counting   =      3044.31276443    -2970.73247858
  entropy T*S    EENTRO =        -0.00000000
  eigenvalues    EBANDS =     -1094.71431625
  atomic energy  EATOM  =      4081.96346187
  ---------------------------------------------------
  free energy    TOTEN  =      -251.55377324 eV

  energy without entropy =     -251.55377324  energy(sigma->0) =     -251.55377324


--------------------------------------------------------------------------------------------------------




--------------------------------------- Iteration      1(   5)  ---------------------------------------


    TRIAL :  cpu time      1.8246: real time      1.8257
    CORREC:  cpu time      0.0004: real time      0.0004
    CHARGE:  cpu time      0.1566: real time      0.1570
    --------------------------------------------
      LOOP:  cpu time      1.9964: real time      2.0133

 eigenvalue-minimisations  :  5888
 total energy-change (2. order) :-0.1579839E+00  (-0.1578704E+00)
 number of electron     104.0000000 magnetization 
 augmentation part       -0.1592543 magnetization 

 Free energy of the ion-electron system (eV)
  ---------------------------------------------------
  alpha Z        PSCENC =        96.04543962
  Ewald energy   TEWEN  =     -1811.74766356
  -Hartree energ DENC   =     -1855.65973572
  -exchange      EXHF   =         0.00000000
  -V(xc)+E(xc)   XCENC  =       258.97875495
  PAW double counting   =      3044.31276443    -2970.73247858
  entropy T*S    EENTRO =        -0.00000000
  eigenvalues    EBANDS =     -1094.87230011
  atomic energy  EATOM  =      4081.96346187
  ---------------------------------------------------
  free energy    TOTEN  =      -251.71175709 eV

  energy without entropy =     -251.71175709  energy(sigma->0) =     -251.71175709


--------------------------------------------------------------------------------------------------------




--------------------------------------- Iteration      1(   6)  ---------------------------------------


    POTLOK:  cpu time      0.0355: real time      0.0355
    SETDIJ:  cpu time      0.0022: real time      0.0022
    TRIAL :  cpu time      0.8775: real time      0.8793
    CORREC:  cpu time      0.5134: real time      0.5138
    CHARGE:  cpu time      0.1440: real time      0.1440
    --------------------------------------------
      LOOP:  cpu time      1.5849: real time      1.6025

 eigenvalue-minimisations  :     0
 total energy-change (2. order) : 0.3334517E+02  (-0.1359193E+02)
 number of electron     104.0000000 magnetization 
 augmentation part       -0.2083760 magnetization 

 Free energy of the ion-electron system (eV)
  ---------------------------------------------------
  alpha Z        PSCENC =        96.04543962
  Ewald energy   TEWEN  =     -1811.74766356
  -Hartree energ DENC   =     -2414.40128634
  -exchange      EXHF   =         0.00000000
  -V(xc)+E(xc)   XCENC  =       290.38596789
  PAW double counting   =     33608.52804934   -33539.23363189
  entropy T*S    EENTRO =        -0.00000000
  eigenvalues    EBANDS =      -529.90692099
  atomic energy  EATOM  =      4081.96346187
  ---------------------------------------------------
  free energy    TOTEN  =      -218.36658405 eV

  energy without entropy =     -218.36658405  energy(sigma->0) =     -218.36658405


--------------------------------------------------------------------------------------------------------




--------------------------------------- Iteration      1(   7)  ---------------------------------------


    POTLOK:  cpu time      0.0358: real time      0.0361
    SETDIJ:  cpu time      0.0020: real time      0.0020
    TRIAL :  cpu time      0.8449: real time      0.8450
    CORREC:  cpu time      0.5045: real time      0.5049
    CHARGE:  cpu time      0.1442: real time      0.1442
    --------------------------------------------
      LOOP:  cpu time      1.5434: real time      1.5619

 eigenvalue-minimisations  :     0
 total energy-change (2. order) :-0.1361558E+02  (-0.1394021E+01)
 number of electron     104.0000000 magnetization 
 augmentation part       -0.2444195 magnetization 

 Free energy of the ion-electron system (eV)
  ---------------------------------------------------
  alpha Z        PSCENC =        96.04543962
  Ewald energy   TEWEN  =     -1811.74766356
  -Hartree energ DENC   =     -2167.26438845
  -exchange      EXHF   =         0.00000000
  -V(xc)+E(xc)   XCENC  =       278.16311393
  PAW double counting   =     43271.64656030   -43200.54456144
  entropy T*S    EENTRO =        -0.00000000
  eigenvalues    EBANDS =      -780.24412137
  atomic energy  EATOM  =      4081.96346187
  ---------------------------------------------------
  free energy    TOTEN  =      -231.98215911 eV

  energy without entropy =     -231.98215911  energy(sigma->0) =     -231.98215911


--------------------------------------------------------------------------------------------------------




--------------------------------------- Iteration      1(   8)  ---------------------------------------


    POTLOK:  cpu time      0.0361: real time      0.0361
    SETDIJ:  cpu time      0.0024: real time      0.0024
    TRIAL :  cpu time      0.8451: real time      0.8455
    CORREC:  cpu time      0.5054: real time      0.5054
    CHARGE:  cpu time      0.1442: real time      0.1445
    --------------------------------------------
      LOOP:  cpu time      1.5465: real time      1.5631

 eigenvalue-minimisations  :     0
 total energy-change (2. order) :-0.1390887E+01  (-0.4757383E+00)
 number of electron     104.0000000 magnetization 
 augmentation part       -0.2438405 magnetization 

 Free energy of the ion-electron system (eV)
  ---------------------------------------------------
  alpha Z        PSCENC =        96.04543962
  Ewald energy   TEWEN  =     -1811.74766356
  -Hartree energ DENC   =     -2158.05616401
  -exchange      EXHF   =         0.00000000
  -V(xc)+E(xc)   XCENC  =       277.88617241
  PAW double counting   =     45213.88043598   -45142.54717133
  entropy T*S    EENTRO =        -0.00000000
  eigenvalues    EBANDS =      -790.79755702
  atomic energy  EATOM  =      4081.96346187
  ---------------------------------------------------
  free energy    TOTEN  =      -233.37304604 eV

  energy without entropy =     -233.37304604  energy(sigma->0) =     -233.37304604


--------------------------------------------------------------------------------------------------------




--------------------------------------- Iteration      1(   9)  ---------------------------------------


    POTLOK:  cpu time      0.0362: real time      0.0362
    SETDIJ:  cpu time      0.0019: real time      0.0019
    TRIAL :  cpu time      0.8439: real time      0.8440
    CORREC:  cpu time      0.5035: real time      0.5039
    CHARGE:  cpu time      0.1443: real time      0.1443
    --------------------------------------------
      LOOP:  cpu time      1.5437: real time      1.5602

 eigenvalue-minimisations  :     0
 total energy-change (2. order) :-0.4725860E+00  (-0.1534414E+00)
 number of electron     104.0000000 magnetization 
 augmentation part       -0.2421854 magnetization 

 Free energy of the ion-electron system (eV)
  ---------------------------------------------------
  alpha Z        PSCENC =        96.04543962
  Ewald energy   TEWEN  =     -1811.74766356
  -Hartree energ DENC   =     -2149.05366217
  -exchange      EXHF   =         0.00000000
  -V(xc)+E(xc)   XCENC  =       277.50201965
  PAW double counting   =     45417.00431433   -45345.58539865
  entropy T*S    EENTRO =        -0.00000000
  eigenvalues    EBANDS =      -799.97414312
  atomic energy  EATOM  =      4081.96346187
  ---------------------------------------------------
  free energy    TOTEN  =      -233.84563204 eV

  energy without entropy =     -233.84563204  energy(sigma->0) =     -233.84563204


--------------------------------------------------------------------------------------------------------




--------------------------------------- Iteration      1(  10)  ---------------------------------------


    POTLOK:  cpu time      0.0361: real time      0.0361
    SETDIJ:  cpu time      0.0022: real time      0.0022
    TRIAL :  cpu time      0.8452: real time      0.8455
    CORREC:  cpu time      0.5118: real time      0.5122
    CHARGE:  cpu time      0.1441: real time      0.1441
    --------------------------------------------
      LOOP:  cpu time      1.5690: real time      1.5699

 eigenvalue-minimisations  :     0
 total energy-change (2. order) :-0.1526783E+00  (-0.3817611E-01)
 number of electron     104.0000000 magnetization 
 augmentation part       -0.2422690 magnetization 

 Free energy of the ion-electron system (eV)
  ---------------------------------------------------
  alpha Z        PSCENC =        96.04543962
  Ewald energy   TEWEN  =     -1811.74766356
  -Hartree energ DENC   =     -2143.98798445
  -exchange      EXHF   =         0.00000000
  -V(xc)+E(xc)   XCENC  =       277.24477043
  PAW double counting   =     44461.38752903   -44389.97919068
  entropy T*S    EENTRO =        -0.00000000
  eigenvalues    EBANDS =      -804.92467264
  atomic energy  EATOM  =      4081.96346187
  ---------------------------------------------------
  free energy    TOTEN  =      -233.99831037 eV

  energy without entropy =     -233.99831037  energy(sigma->0) =     -233.99831037


--------------------------------------------------------------------------------------------------------




--------------------------------------- Iteration      1(  11)  ---------------------------------------


    POTLOK:  cpu time      0.0359: real time      0.0359
    SETDIJ:  cpu time      0.0018: real time      0.0018
    TRIAL :  cpu time      0.8749: real time      0.8753
    CORREC:  cpu time      0.5053: real time      0.5053
    CHARGE:  cpu time      0.1450: real time      0.1450
    --------------------------------------------
      LOOP:  cpu time      1.5741: real time      1.5920

 eigenvalue-minimisations  :     0
 total energy-change (2. order) :-0.3812947E-01  (-0.8413597E-02)
 number of electron     104.0000000 magnetization 
 augmentation part       -0.2425064 magnetization 

 Free energy of the ion-electron system (eV)
  ---------------------------------------------------
  alpha Z        PSCENC =        96.04543962
  Ewald energy   TEWEN  =     -1811.74766356
  -Hartree energ DENC   =     -2144.23368825
  -exchange      EXHF   =         0.00000000
  -V(xc)+E(xc)   XCENC  =       277.23050978
  PAW double counting   =     43894.44825162   -43823.07399092
  entropy T*S    EENTRO =        -0.00000000
  eigenvalues    EBANDS =      -804.66875999
  atomic energy  EATOM  =      4081.96346187
  ---------------------------------------------------
  free energy    TOTEN  =      -234.03643984 eV

  energy without entropy =     -234.03643984  energy(sigma->0) =     -234.03643984


--------------------------------------------------------------------------------------------------------




--------------------------------------- Iteration      1(  12)  ---------------------------------------


    POTLOK:  cpu time      0.0362: real time      0.0362
    SETDIJ:  cpu time      0.0020: real time      0.0020
    TRIAL :  cpu time      0.8436: real time      0.8439
    CORREC:  cpu time      0.5036: real time      0.5039
    CHARGE:  cpu time      0.1647: real time      0.1647
    --------------------------------------------
      LOOP:  cpu time      1.5622: real time      1.5809

 eigenvalue-minimisations  :     0
 total energy-change (2. order) :-0.8408153E-02  (-0.1917997E-02)
 number of electron     104.0000000 magnetization 
 augmentation part       -0.2428715 magnetization 

 Free energy of the ion-electron system (eV)
  ---------------------------------------------------
  alpha Z        PSCENC =        96.04543962
  Ewald energy   TEWEN  =     -1811.74766356
  -Hartree energ DENC   =     -2143.56391890
  -exchange      EXHF   =         0.00000000
  -V(xc)+E(xc)   XCENC  =       277.17406226
  PAW double counting   =     43891.90180514   -43820.53151666
  entropy T*S    EENTRO =        -0.00000000
  eigenvalues    EBANDS =      -805.28651776
  atomic energy  EATOM  =      4081.96346187
  ---------------------------------------------------
  free energy    TOTEN  =      -234.04484799 eV

  energy without entropy =     -234.04484799  energy(sigma->0) =     -234.04484799


--------------------------------------------------------------------------------------------------------




--------------------------------------- Iteration      1(  13)  ---------------------------------------


    POTLOK:  cpu time      0.0354: real time      0.0354
    SETDIJ:  cpu time      0.0029: real time      0.0029
    TRIAL :  cpu time      0.8594: real time      0.8598
    CORREC:  cpu time      0.5039: real time      0.5040
    CHARGE:  cpu time      0.1484: real time      0.1484
    --------------------------------------------
      LOOP:  cpu time      1.5627: real time      1.5802

 eigenvalue-minimisations  :     0
 total energy-change (2. order) :-0.1916502E-02  (-0.4448128E-03)
 number of electron     104.0000000 magnetization 
 augmentation part       -0.2429361 magnetization 

 Free energy of the ion-electron system (eV)
  ---------------------------------------------------
  alpha Z        PSCENC =        96.04543962
  Ewald energy   TEWEN  =     -1811.74766356
  -Hartree energ DENC   =     -2143.61999260
  -exchange      EXHF   =         0.00000000
  -V(xc)+E(xc)   XCENC  =       277.16673414
  PAW double counting   =     43971.56492838   -43900.19426907
  entropy T*S    EENTRO =        -0.00000000
  eigenvalues    EBANDS =      -805.22540327
  atomic energy  EATOM  =      4081.96346187
  ---------------------------------------------------
  free energy    TOTEN  =      -234.04676449 eV

  energy without entropy =     -234.04676449  energy(sigma->0) =     -234.04676449


--------------------------------------------------------------------------------------------------------




--------------------------------------- Iteration      1(  14)  ---------------------------------------


    POTLOK:  cpu time      0.0354: real time      0.0357
    SETDIJ:  cpu time      0.0024: real time      0.0024
    TRIAL :  cpu time      0.8453: real time      0.8454
    CORREC:  cpu time      0.5057: real time      0.5061
    CHARGE:  cpu time      0.1446: real time      0.1447
    --------------------------------------------
      LOOP:  cpu time      1.5468: real time      1.5643

 eigenvalue-minimisations  :     0
 total energy-change (2. order) :-0.4447515E-03  (-0.1053477E-03)
 number of electron     104.0000000 magnetization 
 augmentation part       -0.2428650 magnetization 

 Free energy of the ion-electron system (eV)
  ---------------------------------------------------
  alpha Z        PSCENC =        96.04543962
  Ewald energy   TEWEN  =     -1811.74766356
  -Hartree energ DENC   =     -2143.74238732
  -exchange      EXHF   =         0.00000000
  -V(xc)+E(xc)   XCENC  =       277.17113751
  PAW double counting   =     43999.77074761   -43928.40006089
  entropy T*S    EENTRO =        -0.00000000
  eigenvalues    EBANDS =      -805.10788408
  atomic energy  EATOM  =      4081.96346187
  ---------------------------------------------------
  free energy    TOTEN  =      -234.04720924 eV

  energy without entropy =     -234.04720924  energy(sigma->0) =     -234.04720924


--------------------------------------------------------------------------------------------------------




--------------------------------------- Iteration      1(  15)  ---------------------------------------


    POTLOK:  cpu time      0.0359: real time      0.0359
    SETDIJ:  cpu time      0.0022: real time      0.0022
    TRIAL :  cpu time      0.8453: real time      0.8456
    CORREC:  cpu time      0.5036: real time      0.5037
    CHARGE:  cpu time      0.1446: real time      0.1449
    --------------------------------------------
      LOOP:  cpu time      1.5471: real time      1.5619

 eigenvalue-minimisations  :     0
 total energy-change (2. order) :-0.1059725E-03  (-0.2767657E-04)
 number of electron     104.0000000 magnetization 
 augmentation part       -0.2428102 magnetization 

 Free energy of the ion-electron system (eV)
  ---------------------------------------------------
  alpha Z        PSCENC =        96.04543962
  Ewald energy   TEWEN  =     -1811.74766356
  -Hartree energ DENC   =     -2143.74983469
  -exchange      EXHF   =         0.00000000
  -V(xc)+E(xc)   XCENC  =       277.17062572
  PAW double counting   =     43996.27312913   -43924.90223431
  entropy T*S    EENTRO =        -0.00000000
  eigenvalues    EBANDS =      -805.10023900
  atomic energy  EATOM  =      4081.96346187
  ---------------------------------------------------
  free energy    TOTEN  =      -234.04731522 eV

  energy without entropy =     -234.04731522  energy(sigma->0) =     -234.04731522


--------------------------------------------------------------------------------------------------------




--------------------------------------- Iteration      1(  16)  ---------------------------------------


    POTLOK:  cpu time      0.0360: real time      0.0360
    SETDIJ:  cpu time      0.0019: real time      0.0019
    TRIAL :  cpu time      0.8447: real time      0.8449
    CORREC:  cpu time      0.5042: real time      0.5046
    CHARGE:  cpu time      0.1443: real time      0.1444
    --------------------------------------------
      LOOP:  cpu time      1.5427: real time      1.5610

 eigenvalue-minimisations  :     0
 total energy-change (2. order) :-0.2794428E-04  (-0.8217693E-05)
 number of electron     104.0000000 magnetization 
 augmentation part       -0.2428145 magnetization 

 Free energy of the ion-electron system (eV)
  ---------------------------------------------------
  alpha Z        PSCENC =        96.04543962
  Ewald energy   TEWEN  =     -1811.74766356
  -Hartree energ DENC   =     -2143.78583338
  -exchange      EXHF   =         0.00000000
  -V(xc)+E(xc)   XCENC  =       277.17215216
  PAW double counting   =     43989.66327477   -43918.29252429
  entropy T*S    EENTRO =        -0.00000000
  eigenvalues    EBANDS =      -805.06565034
  atomic energy  EATOM  =      4081.96346187
  ---------------------------------------------------
  free energy    TOTEN  =      -234.04734316 eV

  energy without entropy =     -234.04734316  energy(sigma->0) =     -234.04734316


--------------------------------------------------------------------------------------------------------




--------------------------------------- Iteration      1(  17)  ---------------------------------------


    POTLOK:  cpu time      0.0358: real time      0.0358
    SETDIJ:  cpu time      0.0024: real time      0.0024
    TRIAL :  cpu time      0.8485: real time      0.8488
    CORREC:  cpu time      0.5139: real time      0.5142
    CHARGE:  cpu time      0.1437: real time      0.1437
    --------------------------------------------
      LOOP:  cpu time      1.5571: real time      1.5750

 eigenvalue-minimisations  :     0
 total energy-change (2. order) :-0.8197945E-05  (-0.2862817E-05)
 number of electron     104.0000000 magnetization 
 augmentation part       -0.2428293 magnetization 

 Free energy of the ion-electron system (eV)
  ---------------------------------------------------
  alpha Z        PSCENC =        96.04543962
  Ewald energy   TEWEN  =     -1811.74766356
  -Hartree energ DENC   =     -2143.78905935
  -exchange      EXHF   =         0.00000000
  -V(xc)+E(xc)   XCENC  =       277.17256804
  PAW double counting   =     43990.85338585   -43919.48255360
  entropy T*S    EENTRO =        -0.00000000
  eigenvalues    EBANDS =      -805.06293023
  atomic energy  EATOM  =      4081.96346187
  ---------------------------------------------------
  free energy    TOTEN  =      -234.04735136 eV

  energy without entropy =     -234.04735136  energy(sigma->0) =     -234.04735136


--------------------------------------------------------------------------------------------------------




--------------------------------------- Iteration      1(  18)  ---------------------------------------


    POTLOK:  cpu time      0.0359: real time      0.0359
    SETDIJ:  cpu time      0.0022: real time      0.0022
    TRIAL :  cpu time      0.8438: real time      0.8441
    CORREC:  cpu time      0.5036: real time      0.5037
    CHARGE:  cpu time      0.1445: real time      0.1445
    --------------------------------------------
      LOOP:  cpu time      1.5604: real time      1.5611

 eigenvalue-minimisations  :     0
 total energy-change (2. order) :-0.2708206E-05  (-0.8078257E-06)
 number of electron     104.0000000 magnetization 
 augmentation part       -0.2428355 magnetization 

 Free energy of the ion-electron system (eV)
  ---------------------------------------------------
  alpha Z        PSCENC =        96.04543962
  Ewald energy   TEWEN  =     -1811.74766356
  -Hartree energ DENC   =     -2143.80077648
  -exchange      EXHF   =         0.00000000
  -V(xc)+E(xc)   XCENC  =       277.17334651
  PAW double counting   =     43994.05980299   -43922.68896462
  entropy T*S    EENTRO =        -0.00000000
  eigenvalues    EBANDS =      -805.05200040
  atomic energy  EATOM  =      4081.96346187
  ---------------------------------------------------
  free energy    TOTEN  =      -234.04735407 eV

  energy without entropy =     -234.04735407  energy(sigma->0) =     -234.04735407


--------------------------------------------------------------------------------------------------------




--------------------------------------- Iteration      1(  19)  ---------------------------------------


    POTLOK:  cpu time      0.0358: real time      0.0358
    SETDIJ:  cpu time      0.0020: real time      0.0020
    TRIAL :  cpu time      0.8441: real time      0.8445
    CORREC:  cpu time      0.5034: real time      0.5038
    CHARGE:  cpu time      0.1496: real time      0.1496
    --------------------------------------------
      LOOP:  cpu time      1.5584: real time      1.5757

 eigenvalue-minimisations  :     0
 total energy-change (2. order) :-0.7966810E-06  (-0.2375298E-06)
 number of electron     104.0000000 magnetization 
 augmentation part       -0.2428332 magnetization 

 Free energy of the ion-electron system (eV)
  ---------------------------------------------------
  alpha Z        PSCENC =        96.04543962
  Ewald energy   TEWEN  =     -1811.74766356
  -Hartree energ DENC   =     -2143.79322881
  -exchange      EXHF   =         0.00000000
  -V(xc)+E(xc)   XCENC  =       277.17309973
  PAW double counting   =     43994.93513805   -43923.56426260
  entropy T*S    EENTRO =        -0.00000000
  eigenvalues    EBANDS =      -805.05933916
  atomic energy  EATOM  =      4081.96346187
  ---------------------------------------------------
  free energy    TOTEN  =      -234.04735486 eV

  energy without entropy =     -234.04735486  energy(sigma->0) =     -234.04735486


--------------------------------------------------------------------------------------------------------




--------------------------------------- Iteration      1(  20)  ---------------------------------------


    POTLOK:  cpu time      0.0359: real time      0.0359
    SETDIJ:  cpu time      0.0022: real time      0.0022
    TRIAL :  cpu time      0.8434: real time      0.8437
    CORREC:  cpu time      0.5045: real time      0.5045
    CHARGE:  cpu time      0.1440: real time      0.1440
    --------------------------------------------
      LOOP:  cpu time      1.5416: real time      1.5607

 eigenvalue-minimisations  :     0
 total energy-change (2. order) :-0.2363086E-06  (-0.6101134E-07)
 number of electron     104.0000000 magnetization 
 augmentation part       -0.2428336 magnetization 

 Free energy of the ion-electron system (eV)
  ---------------------------------------------------
  alpha Z        PSCENC =        96.04543962
  Ewald energy   TEWEN  =     -1811.74766356
  -Hartree energ DENC   =     -2143.79589990
  -exchange      EXHF   =         0.00000000
  -V(xc)+E(xc)   XCENC  =       277.17321646
  PAW double counting   =     43994.21440537   -43922.84357316
  entropy T*S    EENTRO =        -0.00000000
  eigenvalues    EBANDS =      -805.05674179
  atomic energy  EATOM  =      4081.96346187
  ---------------------------------------------------
  free energy    TOTEN  =      -234.04735510 eV

  energy without entropy =     -234.04735510  energy(sigma->0) =     -234.04735510


--------------------------------------------------------------------------------------------------------




--------------------------------------- Iteration      1(  21)  ---------------------------------------


    POTLOK:  cpu time      0.0357: real time      0.0357
    SETDIJ:  cpu time      0.0019: real time      0.0019
    TRIAL :  cpu time      0.8449: real time      0.8453
    CORREC:  cpu time      0.5039: real time      0.5043
    EDDIAG:  cpu time      0.3673: real time      0.3674
    CHARGE:  cpu time      0.1449: real time      0.1449
    --------------------------------------------
      LOOP:  cpu time      1.9129: real time      1.9279

 eigenvalue-minimisations  :     0
 total energy-change (2. order) :-0.6322807E-07  (-0.2426565E-07)
 number of electron     104.0000000 magnetization 
 augmentation part       -0.2428350 magnetization 

 Free energy of the ion-electron system (eV)
  ---------------------------------------------------
  alpha Z        PSCENC =        96.04543962
  Ewald energy   TEWEN  =     -1811.74766356
  -Hartree energ DENC   =     -2143.79395110
  -exchange      EXHF   =         0.00000000
  -V(xc)+E(xc)   XCENC  =       277.17309493
  PAW double counting   =     43993.83012049   -43922.45928394
  entropy T*S    EENTRO =        -0.00000000
  eigenvalues    EBANDS =      -805.05857348
  atomic energy  EATOM  =      4081.96346187
  ---------------------------------------------------
  free energy    TOTEN  =      -234.04735516 eV

  energy without entropy =     -234.04735516  energy(sigma->0) =     -234.04735516


--------------------------------------------------------------------------------------------------------


  average scaling for gradient   0.8998


 average (electrostatic) potential at core
  the test charge radii are     0.5770  0.5902  0.4325
  (the norm of the test charge is              1.0000)
       1 -81.9538       2 -81.9538       3 -81.9538       4 -81.9538       5 -81.0712
       6 -81.0712       7 -81.0712       8 -81.0712       9 -81.3238      10 -81.3238
      11 -81.3238      12 -81.3238      13 -99.3614      14 -99.3614      15 -99.3614
      16 -99.3614      17 -98.0119      18 -98.0119      19 -98.0119      20 -98.0119
      21 -41.0042      22 -41.0042      23 -41.0042      24 -41.0042      25 -40.1751
      26 -40.1751      27 -40.1751      28 -40.1751      29 -39.8980      30 -39.8980
      31 -39.8980      32 -39.8980      33 -40.1773      34 -40.1773      35 -40.1773
      36 -40.1773



 E-fermi :   0.0058     XC(G=0):  -8.0265     alpha+bet : -6.9974

 Fermi energy:         0.0058131807

 k-point     1 :       0.0000    0.0000    0.0000
  band No.  band energies     occupation 
      1     -20.0581      2.00000
      2     -19.9664      2.00000
      3     -19.9258      2.00000
      4     -19.9246      2.00000
      5     -16.4036      2.00000
      6     -16.3920      2.00000
      7     -16.0695      2.00000
      8     -16.0372      2.00000
      9     -13.0342      2.00000
     10     -12.9799      2.00000
     11     -12.9536      2.00000
     12     -12.9479      2.00000
     13      -9.9330      2.00000
     14      -9.8604      2.00000
     15      -9.4975      2.00000
     16      -9.3868      2.00000
     17      -9.2028      2.00000
     18      -9.1920      2.00000
     19      -9.1885      2.00000
     20      -9.0419      2.00000
     21      -8.8431      2.00000
     22      -8.4719      2.00000
     23      -8.2089      2.00000
     24      -8.1886      2.00000
     25      -5.8196      2.00000
     26      -5.8112      2.00000
     27      -5.6755      2.00000
     28      -5.4911      2.00000
     29      -5.4526      2.00000
     30      -5.3581      2.00000
     31      -5.1565      2.00000
     32      -5.0635      2.00000
     33      -5.0554      2.00000
     34      -4.9766      2.00000
     35      -4.9762      2.00000
     36      -4.8136      2.00000
     37      -4.6964      2.00000
     38      -4.6608      2.00000
     39      -4.4555      2.00000
     40      -4.3792      2.00000
     41      -2.0311      2.00000
     42      -1.8962      2.00000
     43      -1.7964      2.00000
     44      -1.6980      2.00000
     45      -1.6891      2.00000
     46      -1.5017      2.00000
     47      -1.2994      2.00000
     48      -1.1548      2.00000
     49      -0.9323      2.00000
     50      -0.7085      2.00000
     51      -0.3690      2.00000
     52      -0.1806      2.00000
     53       4.7716      0.00000
     54       4.8089      0.00000
     55       4.8295      0.00000
     56       5.1649      0.00000
     57       5.3236      0.00000
     58       5.3654      0.00000
     59       5.4858      0.00000
     60       5.5389      0.00000
     61       5.7428      0.00000
     62       6.5874      0.00000
     63       6.8545      0.00000
     64       7.1651      0.00000
     65       7.4706      0.00000
     66       7.4978      0.00000
     67       7.7202      0.00000
     68       8.2375      0.00000
     69       8.3393      0.00000
     70       8.6024      0.00000
     71       8.7229      0.00000
     72       9.0931      0.00000

 k-point     2 :       0.2500    0.0000    0.0000
  band No.  band energies     occupation 
      1     -20.0463      2.00000
      2     -19.9785      2.00000
      3     -19.9435      2.00000
      4     -19.9070      2.00000
      5     -16.4165      2.00000
      6     -16.3784      2.00000
      7     -16.0728      2.00000
      8     -16.0339      2.00000
      9     -13.0382      2.00000
     10     -12.9761      2.00000
     11     -12.9642      2.00000
     12     -12.9369      2.00000
     13      -9.9618      2.00000
     14      -9.8230      2.00000
     15      -9.4891      2.00000
     16      -9.4011      2.00000
     17      -9.2001      2.00000
     18      -9.1859      2.00000
     19      -9.1810      2.00000
     20      -9.0586      2.00000
     21      -8.8161      2.00000
     22      -8.5472      2.00000
     23      -8.2351      2.00000
     24      -8.1525      2.00000
[...]
     13      -9.7627      2.00000
     14      -9.7445      2.00000
     15      -9.4993      2.00000
     16      -9.4702      2.00000
     17      -9.2650      2.00000
     18      -9.2336      2.00000
     19      -9.0960      2.00000
     20      -9.0747      2.00000
     21      -8.4752      2.00000
     22      -8.3766      2.00000
     23      -8.2804      2.00000
     24      -8.2430      2.00000
     25      -5.6928      2.00000
     26      -5.6815      2.00000
     27      -5.5725      2.00000
     28      -5.5331      2.00000
     29      -5.4362      2.00000
     30      -5.3646      2.00000
     31      -5.1975      2.00000
     32      -5.1518      2.00000
     33      -5.0986      2.00000
     34      -5.0520      2.00000
     35      -4.9392      2.00000
     36      -4.8916      2.00000
     37      -4.7712      2.00000
     38      -4.6732      2.00000
     39      -4.6018      2.00000
     40      -4.5665      2.00000
     41      -1.9034      2.00000
     42      -1.8767      2.00000
     43      -1.7814      2.00000
     44      -1.7655      2.00000
     45      -1.6573      2.00000
     46      -1.6131      2.00000
     47      -1.4469      2.00000
     48      -1.4030      2.00000
     49      -0.4239      2.00000
     50      -0.2986      2.00000
     51      -0.2370      2.00000
     52      -0.1161      2.00000
     53       4.6048      0.00000
     54       4.6965      0.00000
     55       4.7604      0.00000
     56       4.8745      0.00000
     57       5.4228      0.00000
     58       5.4577      0.00000
     59       5.5279      0.00000
     60       5.6172      0.00000
     61       6.1291      0.00000
     62       6.1915      0.00000
     63       6.6300      0.00000
     64       6.8365      0.00000
     65       7.2265      0.00000
     66       7.5489      0.00000
     67       7.6615      0.00000
     68       7.7572      0.00000
     69       8.0836      0.00000
     70       8.1815      0.00000
     71       8.7926      0.00000
     72       8.9578      0.00000


--------------------------------------------------------------------------------------------------------


 soft charge-density along one line, spin component           1
         0         1         2         3         4         5         6         7         8         9
 total charge-density along one line

 pseudopotential strength for first ion, spin component:           1
 12.562  21.137   0.008  -0.002   0.007   0.015  -0.004   0.012
 21.137  35.562   0.014  -0.004   0.011   0.025  -0.006   0.020
  0.008   0.014  -3.116   0.000  -0.000  -5.582   0.000  -0.000
 -0.002  -0.004   0.000  -3.117   0.001   0.000  -5.583   0.001
  0.007   0.011  -0.000   0.001  -3.117  -0.000   0.001  -5.583
  0.015   0.025  -5.582   0.000  -0.000  -9.975   0.001  -0.001
 -0.004  -0.006   0.000  -5.583   0.001   0.001  -9.978   0.002
  0.012   0.020  -0.000   0.001  -5.583  -0.001   0.002  -9.977
 total augmentation occupancy for first ion, spin component:           1
  8.114  -2.926   1.339   0.411   0.673  -0.645  -0.194  -0.324
 -2.926   1.119  -0.715  -0.192  -0.373   0.326   0.095   0.165
  1.339  -0.715   6.242   1.056   1.465  -2.051  -0.416  -0.597
  0.411  -0.192   1.056   6.847  -1.629  -0.416  -2.386   0.720
  0.673  -0.373   1.465  -1.629   5.077  -0.597   0.720  -1.622
 -0.645   0.326  -2.051  -0.416  -0.597   0.698   0.160   0.230
 -0.194   0.095  -0.416  -2.386   0.720   0.160   0.857  -0.296
 -0.324   0.165  -0.597   0.720  -1.622   0.230  -0.296   0.545


------------------------ aborting loop because EDIFF is reached ----------------------------------------


    FORLOC:  cpu time      0.0092: real time      0.0092
    FORNL :  cpu time      0.6218: real time      0.6224
    FORCOR:  cpu time      0.0377: real time      0.0379
    OFIELD:  cpu time      0.0027: real time      0.0028

  Hirshfeld charges:
            ion         q(e)     
   ------------------------------
      1     C        0.03700355
      2     C        0.03700354
      3     C        0.03700375
      4     C        0.03700340
      5     C       -0.03900873
      6     C       -0.03900859
      7     C       -0.03900870
      8     C       -0.03900854
      9     C       -0.02647512
     10     C       -0.02647519
     11     C       -0.02647536
     12     C       -0.02647498
     13     N       -0.05446856
     14     N       -0.05446874
     15     N       -0.05446870
     16     N       -0.05446864
     17     N       -0.13967466
     18     N       -0.13967439
     19     N       -0.13967431
     20     N       -0.13967471
     21     H        0.09021415
     22     H        0.09021405
     23     H        0.09021411
     24     H        0.09021413
     25     H        0.04538073
     26     H        0.04538073
     27     H        0.04538085
     28     H        0.04538062
     29     H        0.04044856
     30     H        0.04044869
     31     H        0.04044856
     32     H        0.04044866
     33     H        0.04658001
     34     H        0.04657991
     35     H        0.04657981
     36     H        0.04658009

  Atomic reference data used in the T-S method for vdW correction:
            C6at              R0at           ALPHAat      REFSTATE
            (au)              (au)            (au)                
   ---------------------------------------------------------------
   C          46.600          3.590         12.000         0
   N          24.200          3.345          7.400         0
   H           6.500          3.099          4.500         0
 
 Nth order contribution to Edisp (eV)
 Edisp(N=2):  -2.3846969106122873     
 Edisp(N=3):  0.23774368983857116     
 Edisp(N=4): -0.13249068490789032     
 Edisp(N=5):   3.9895998372690700E-002
 Edisp(N=6):  -1.9984552597288072E-002
 Edisp(N=inf):  -2.2538651600491204     

  Tkatchenko/Scheffler method for vdW energy calculation
  ---------------------------------------------------------------------------------------------

  Parameters of vdW forcefield:
            C6ts              R0ts          ALPHAts         R0scs        ALPHAscs        RELVOL 
            (au)              (au)           (au)            (au)          (au)                 
   ---------------------------------------------------------------------------------------------
   C          32.310          3.378          9.992          3.288          9.219          0.833
   C          32.310          3.378          9.992          3.288          9.219          0.833
   C          32.310          3.378          9.992          3.288          9.219          0.833
   C          32.310          3.378          9.992          3.288          9.219          0.833
   C          33.098          3.391         10.113          3.288          9.217          0.843
   C          33.098          3.391         10.113          3.288          9.217          0.843
   C          33.098          3.391         10.113          3.288          9.217          0.843
   C          33.098          3.391         10.113          3.288          9.217          0.843
   C          32.579          3.383         10.034          3.288          9.219          0.836
   C          32.579          3.383         10.034          3.288          9.219          0.836
   C          32.579          3.383         10.034          3.288          9.219          0.836
   C          32.579          3.383         10.034          3.288          9.219          0.836
   N          17.828          3.179          6.351          3.065          5.695          0.858
   N          17.828          3.179          6.351          3.065          5.695          0.858
   N          17.828          3.179          6.351          3.065          5.695          0.858
   N          17.828          3.179          6.351          3.065          5.695          0.858
   N          18.879          3.209          6.536          3.147          6.160          0.883
   N          18.879          3.209          6.536          3.147          6.160          0.883
   N          18.879          3.209          6.536          3.147          6.160          0.883
   N          18.879          3.209          6.536          3.147          6.160          0.883
   H           3.804          2.834          3.443          2.816          3.375          0.765
   H           3.804          2.834          3.443          2.816          3.375          0.765
   H           3.804          2.834          3.443          2.816          3.375          0.765
   H           3.804          2.834          3.443          2.816          3.375          0.765
   H           3.625          2.812          3.361          2.590          2.626          0.747
   H           3.625          2.812          3.361          2.590          2.626          0.747
   H           3.625          2.812          3.361          2.590          2.626          0.747
   H           3.625          2.812          3.361          2.590          2.626          0.747
   H           3.504          2.796          3.304          2.590          2.627          0.734
   H           3.504          2.796          3.304          2.590          2.627          0.734
   H           3.504          2.796          3.304          2.590          2.627          0.734
   H           3.504          2.796          3.304          2.590          2.627          0.734
   H           3.534          2.800          3.318          2.578          2.591          0.737
   H           3.534          2.800          3.318          2.578          2.591          0.737
   H           3.534          2.800          3.318          2.578          2.591          0.737
   H           3.534          2.800          3.318          2.578          2.591          0.737

  vdW correction parametrized for the method pbe       

  IVDW = 202
  VDW_RADIUS =    50.000 A
  VDW_SR =     0.830
  VDW_D =     6.000
  SCSRAD =   120.000 A
  LVDWSCS = T
  LSCSGRAD = T
  LSCALER0 = T
  ITIM = -1
  Edisp (eV):   -2.25387
    FORVDW:  cpu time     73.0162: real time     73.0540

 VOLUME and BASIS-vectors are now :
 -----------------------------------------------------------------------------
  energy-cutoff  :     1000.00
  volume of cell :      348.76
      direct lattice vectors                 reciprocal lattice vectors
     7.582000000  0.000000000  0.000000000     0.131891322 -0.000000000  0.073048454
     0.000000000  5.371000000  0.000000000     0.000000000  0.186185068 -0.000000000
    -4.743300000  0.000000000  8.564180000     0.000000000  0.000000000  0.116765411

  length of vectors
     7.582000000  5.371000000  9.789998670     0.150769351  0.186185068  0.116765411


 FORCES acting on ions:
    Electron-Ion                     Ewald-Force                    Non-Local-Force
 -----------------------------------------------------------------------------------------------
   0.703E+02 0.146E+03 0.355E+02   -.741E+02 -.151E+03 -.341E+02   0.396E+01 0.465E+01 -.152E+01
   -.703E+02 -.146E+03 -.355E+02   0.741E+02 0.151E+03 0.341E+02   -.396E+01 -.465E+01 0.152E+01
   -.703E+02 0.146E+03 -.355E+02   0.741E+02 -.151E+03 0.341E+02   -.396E+01 0.465E+01 0.152E+01
   0.703E+02 -.146E+03 0.355E+02   -.741E+02 0.151E+03 -.341E+02   0.396E+01 -.465E+01 -.152E+01
   -.172E+02 -.122E+03 -.103E+03   0.202E+02 0.126E+03 0.102E+03   -.316E+01 -.362E+01 0.886E+00
   0.172E+02 0.122E+03 0.103E+03   -.202E+02 -.126E+03 -.102E+03   0.316E+01 0.362E+01 -.886E+00
   0.172E+02 -.122E+03 0.103E+03   -.202E+02 0.126E+03 -.102E+03   0.316E+01 -.362E+01 -.886E+00
   -.172E+02 0.122E+03 -.103E+03   0.202E+02 -.126E+03 0.102E+03   -.316E+01 0.362E+01 0.886E+00
   -.103E+03 -.117E+03 0.388E+02   0.104E+03 0.123E+03 -.338E+02   -.120E+01 -.646E+01 -.529E+01
   0.103E+03 0.117E+03 -.388E+02   -.104E+03 -.123E+03 0.338E+02   0.120E+01 0.646E+01 0.529E+01
   0.103E+03 -.117E+03 -.388E+02   -.104E+03 0.123E+03 0.338E+02   0.120E+01 -.646E+01 0.529E+01
   -.103E+03 0.117E+03 0.388E+02   0.104E+03 -.123E+03 -.338E+02   -.120E+01 0.646E+01 -.529E+01
   -.627E+02 0.445E+02 0.136E+03   0.648E+02 -.468E+02 -.144E+03   -.213E+01 0.238E+01 0.745E+01
   0.627E+02 -.445E+02 -.136E+03   -.648E+02 0.468E+02 0.144E+03   0.213E+01 -.238E+01 -.745E+01
   0.627E+02 0.445E+02 -.136E+03   -.648E+02 -.468E+02 0.144E+03   0.213E+01 0.238E+01 -.745E+01
   -.627E+02 -.445E+02 0.136E+03   0.648E+02 0.468E+02 -.144E+03   -.213E+01 -.238E+01 0.745E+01
   0.107E+03 0.328E+02 -.145E+03   -.126E+03 -.391E+02 0.168E+03   0.197E+02 0.649E+01 -.237E+02
   -.107E+03 -.328E+02 0.145E+03   0.126E+03 0.391E+02 -.168E+03   -.197E+02 -.649E+01 0.237E+02
   -.107E+03 0.328E+02 0.145E+03   0.126E+03 -.391E+02 -.168E+03   -.197E+02 0.649E+01 0.237E+02
   0.107E+03 -.328E+02 -.145E+03   -.126E+03 0.391E+02 0.168E+03   0.197E+02 -.649E+01 -.237E+02
   -.190E+02 0.167E+02 0.427E+02   0.214E+02 -.189E+02 -.484E+02   -.243E+01 0.219E+01 0.561E+01
   0.190E+02 -.167E+02 -.427E+02   -.214E+02 0.189E+02 0.484E+02   0.243E+01 -.219E+01 -.561E+01
   0.190E+02 0.167E+02 -.427E+02   -.214E+02 -.189E+02 0.484E+02   0.243E+01 0.219E+01 -.561E+01
   -.190E+02 -.167E+02 0.427E+02   0.214E+02 0.189E+02 -.484E+02   -.243E+01 -.219E+01 0.561E+01
   0.198E+02 0.447E+02 0.113E+02   -.225E+02 -.500E+02 -.126E+02   0.270E+01 0.528E+01 0.127E+01
   -.198E+02 -.447E+02 -.113E+02   0.225E+02 0.500E+02 0.126E+02   -.270E+01 -.528E+01 -.127E+01
   -.198E+02 0.447E+02 -.113E+02   0.225E+02 -.500E+02 0.126E+02   -.270E+01 0.528E+01 -.127E+01
   0.198E+02 -.447E+02 0.113E+02   -.225E+02 0.500E+02 -.126E+02   0.270E+01 -.528E+01 0.127E+01
   -.101E+00 -.391E+02 -.371E+02   0.296E+00 0.432E+02 0.413E+02   -.198E+00 -.411E+01 -.423E+01
   0.101E+00 0.391E+02 0.371E+02   -.296E+00 -.432E+02 -.413E+02   0.198E+00 0.411E+01 0.423E+01
   0.101E+00 -.391E+02 0.371E+02   -.296E+00 0.432E+02 -.413E+02   0.198E+00 -.411E+01 0.423E+01
   -.101E+00 0.391E+02 -.371E+02   0.296E+00 -.432E+02 0.413E+02   -.198E+00 0.411E+01 -.423E+01
   -.327E+02 -.315E+02 0.232E+02   0.367E+02 0.353E+02 -.253E+02   -.403E+01 -.381E+01 0.216E+01
   0.327E+02 0.315E+02 -.232E+02   -.367E+02 -.353E+02 0.253E+02   0.403E+01 0.381E+01 -.216E+01
   0.327E+02 -.315E+02 -.232E+02   -.367E+02 0.353E+02 0.253E+02   0.403E+01 -.381E+01 -.216E+01
   -.327E+02 0.315E+02 0.232E+02   0.367E+02 -.353E+02 -.253E+02   -.403E+01 0.381E+01 0.216E+01
 -----------------------------------------------------------------------------------------------
   -.717E-03 0.710E-03 0.299E-03   -.156E-12 -.384E-12 -.338E-12   -.355E-14 -.133E-14 0.000E+00


 POSITION                                       TOTAL-FORCE (eV/Angst)
 -----------------------------------------------------------------------------------
      0.33730      1.16812      1.53227         0.106173      0.155198      0.021703
      2.50140      4.20288      7.03191        -0.106173     -0.155198     -0.021703
      4.87305      3.85362      2.74982        -0.106169      0.155195     -0.021712
     -2.03435      1.51737      5.81436         0.106169     -0.155195      0.021712
      0.92262      2.97476      2.56311        -0.066100     -0.129491     -0.034572
      1.91608      2.39624      6.00107         0.066100      0.129491      0.034572
      4.28773      0.28926      1.71898         0.066090     -0.129501      0.034593
     -1.44903      5.08174      6.84520        -0.066090      0.129501     -0.034593
      1.63394      2.94163      1.38697        -0.062504     -0.122673     -0.038987
      1.20476      2.42937      7.17721         0.062504      0.122673      0.038987
      3.57642      0.25613      2.89512         0.062523     -0.122691      0.038973
     -0.73772      5.11487      5.66906        -0.062523      0.122691     -0.038973
      1.24795      1.78824      0.74212        -0.026888      0.040488      0.110261
      1.59075      3.58276      7.82206         0.026888     -0.040488     -0.110261
      3.96241      4.47374      3.53997         0.026880      0.040502     -0.110260
     -1.12371      0.89726      5.02421        -0.026880     -0.040502      0.110260
      0.11121      1.85961      2.64921         0.009907      0.011205      0.049444
      2.72749      3.51139      5.91497        -0.009907     -0.011205     -0.049444
      5.09914      4.54511      1.63288        -0.009910      0.011210     -0.049443
     -2.26044      0.82589      6.93130         0.009910     -0.011210      0.049443
     -3.10239      1.43136      8.39660         0.050355     -0.035937     -0.090593
      5.94109      3.93964      0.16758        -0.050355      0.035937      0.090593
      3.56944      4.11686      4.44967        -0.050355     -0.035938      0.090593
     -0.73074      1.25414      4.11451         0.050355      0.035938     -0.090593
     -0.13519      0.22445      1.28500        -0.023376     -0.033990     -0.004464
      2.97389      5.14655      7.27918         0.023376      0.033990      0.004464
      5.34554      2.90995      2.99709         0.023375     -0.033989      0.004465
     -2.50684      2.46105      5.56709        -0.023375      0.033989     -0.004465
      0.95135      3.72625      3.34276        -0.005080      0.013436      0.022915
      1.88735      1.64475      5.22142         0.005080     -0.013436     -0.022915
      4.25900      1.04075      0.93933         0.005082      0.013442     -0.022922
     -1.42030      4.33025      7.62485        -0.005082     -0.013442      0.022922
      2.36706      3.62428      0.97584         0.021717      0.022554     -0.011015
      0.47164      1.74672      7.58834        -0.021717     -0.022554      0.011015
      2.84329      0.93878      3.30625        -0.021724      0.022561      0.011020
     -0.00459      4.43222      5.25793         0.021724     -0.022561     -0.011020
 -----------------------------------------------------------------------------------
    total drift:                               -0.000717      0.000710      0.000299


--------------------------------------------------------------------------------------------------------



  FREE ENERGIE OF THE ION-ELECTRON SYSTEM (eV)
  ---------------------------------------------------
  free  energy   TOTEN  =      -236.30122032 eV

  energy  without entropy=     -236.30122032  energy(sigma->0) =     -236.30122032



--------------------------------------------------------------------------------------------------------


    POTLOK:  cpu time      0.2194: real time      0.2194


--------------------------------------------------------------------------------------------------------


 stress matrix after NEB project (eV)
     -2.53815     -0.00000     -0.23610
     -0.00000     -2.21709     -0.00000
     -0.23610     -0.00000     -2.33181
  FORCES: max atom, RMS     0.189289    0.111265
  FORCE total and by dimension    0.667591    0.155198
  Stress total and by dimension    4.111753    2.538146
     LOOP+:  cpu time    114.2256: real time    114.5848
    4ORBIT:  cpu time      0.0000: real time      0.0000

 total amount of memory used by VASP MPI-rank0    62704. kBytes
=======================================================================

   base      :      30000. kBytes
   nonl-proj :       5170. kBytes
   fftplans  :       2043. kBytes
   grid      :       3846. kBytes
   one-center:          6. kBytes
   wavefun   :      21639. kBytes

  
  
 General timing and accounting informations for this job:
 ========================================================
  
                  Total CPU time used (sec):      130.650
                            User time (sec):      127.652
                          System time (sec):        2.997
                         Elapsed time (sec):      134.077
  
                   Maximum memory used (kb):      249584.
                   Average memory used (kb):          N/A
  
                          Minor page faults:       159794
                          Major page faults:          687
                 Voluntary context switches:         3612
