 vasp.6.4.1 05Apr23 (build Jun  6 2023 14:36:51) complex                         
 executed on        HPECrayEX_GCC date 2024.08.20  14:25:40
 running  256 mpi-ranks, with    1 threads/rank, on    2 nodes
 distrk:  each k-point on  256 cores,    1 groups
 distr:  one band on NCORE=   2 cores,  128 groups


--------------------------------------------------------------------------------------------------------


 INCAR:
   ALGO = Conjugate
   NCORE = 2
   PREC = Accurate
   EDIFF = 1E-7
   ENCUT = 1000
   ISMEAR = 0
   SIGMA = 0.01
   ISIF = 0
   SYMPREC = 1E-7
   GGA = B5
   ALDAX = 1.0
   AGGAX = 1.0
   AGGAC = 1.0
   ALDAC = 0.0
   IVDW = 11
   VDW_S8 = 1.682
   VDW_SR = 1.094
   LWAVE = .FALSE.
   LCHARGE = .FALSE.
   LWAVE = .FALSE.
   LCHARGE = .FALSE.

 POTCAR:    PAW_PBE C_h 06Feb2004                 
 POTCAR:    PAW_PBE N_h 06Feb2004                 
 POTCAR:    PAW_PBE H_h 06Feb2004                 
 POTCAR:    PAW_PBE C_h 06Feb2004                 
   VRHFIN =C: s2p2                                                                                  
   LEXCH  = PE                                                                                      
   EATOM  =   147.1560 eV,   10.8157 Ry                                                             
                                                                                                    
   TITEL  = PAW_PBE C_h 06Feb2004                                                                   
   LULTRA =        F    use ultrasoft PP ?                                                          
   IUNSCR =        1    unscreen: 0-lin 1-nonlin 2-no                                               
   RPACOR =    0.800    partial core radius                                                         
   POMASS =   12.011; ZVAL   =    4.000    mass and valenz                                          
   RCORE  =    1.100    outmost cutoff radius                                                       
   RWIGS  =    1.630; RWIGS  =    0.863    wigner-seitz radius (au A)                               
   ENMAX  =  700.000; ENMIN  =  500.000 eV                                                          
   ICORE  =        2    local potential                                                             
   LCOR   =        T    correct aug charges                                                         
   LPAW   =        T    paw PP                                                                      
   EAUG   =  946.768                                                                                
   DEXC   =    0.000                                                                                
   RMAX   =    1.128    core radius for proj-oper                                                   
   RAUG   =    1.300    factor for augmentation sphere                                              
   RDEP   =    1.162    radius for radial grids                                                     
   RDEPT  =    1.088    core radius for aug-charge                                                  
                                                                                                    
   Atomic configuration                                                                             
    4 entries                                                                                       
     n  l   j            E        occ.                                                              
     1  0  0.50      -273.3789   2.0000                                                             
     2  0  0.50       -13.7508   2.0000                                                             
     2  1  0.50        -5.2854   2.0000                                                             
     3  2  1.50        -5.4423   0.0000                                                             
   Description                                                                                      
     l       E           TYP  RCUT    TYP  RCUT                                                     
     0    -13.7508458     23  1.100                                                                 
     0     -8.2022199     23  1.100                                                                 
     1     -5.2854383     23  1.100                                                                 
     1      1.1560700     23  1.100                                                                 
     2     -5.4423304      7  1.100                                                                 
  local pseudopotential read in
  partial core-charges read in
  partial kinetic energy density read in
  atomic valenz-charges read in
  non local Contribution for L=           0  read in
    real space projection operators read in
  non local Contribution for L=           0  read in
    real space projection operators read in
  non local Contribution for L=           1  read in
    real space projection operators read in
  non local Contribution for L=           1  read in
    real space projection operators read in
    PAW grid and wavefunctions read in

   number of l-projection  operators is LMAX  =           4
   number of lm-projection operators is LMMAX =           8

 POTCAR:    PAW_PBE N_h 06Feb2004                 
   VRHFIN =N: s2p3                                                                                  
   LEXCH  = PE                                                                                      
   EATOM  =   264.5486 eV,   19.4438 Ry                                                             
                                                                                                    
   TITEL  = PAW_PBE N_h 06Feb2004                                                                   
   LULTRA =        F    use ultrasoft PP ?                                                          
   IUNSCR =        1    unscreen: 0-lin 1-nonlin 2-no                                               
   RPACOR =    0.800    partial core radius                                                         
   POMASS =   14.001; ZVAL   =    5.000    mass and valenz                                          
   RCORE  =    1.100    outmost cutoff radius                                                       
   RWIGS  =    1.480; RWIGS  =    0.783    wigner-seitz radius (au A)                               
   ENMAX  =  700.000; ENMIN  =  500.000 eV                                                          
   ICORE  =        2    local potential                                                             
   LCOR   =        T    correct aug charges                                                         
   LPAW   =        T    paw PP                                                                      
   EAUG   =  904.640                                                                                
   DEXC   =    0.000                                                                                
   RMAX   =    1.127    core radius for proj-oper                                                   
   RAUG   =    1.300    factor for augmentation sphere                                              
   RDEP   =    1.115    radius for radial grids                                                     
   RDEPT  =    1.106    core radius for aug-charge                                                  
                                                                                                    
   Atomic configuration                                                                             
    4 entries                                                                                       
     n  l   j            E        occ.                                                              
     1  0  0.50      -384.7179   2.0000                                                             
     2  0  0.50       -18.5828   2.0000                                                             
     2  1  0.50        -7.0898   3.0000                                                             
     3  2  1.50        -6.8029   0.0000                                                             
   Description                                                                                      
     l       E           TYP  RCUT    TYP  RCUT                                                     
     0    -18.5828117     23  1.100                                                                 
     0    -15.0750597     23  1.100                                                                 
     1     -7.0897851     23  1.100                                                                 
     1     -1.9663412     23  1.100                                                                 
     2     -6.8029130      7  1.100                                                                 
  local pseudopotential read in
  partial core-charges read in
  partial kinetic energy density read in
  kinetic energy density of atom read in
  atomic valenz-charges read in
  non local Contribution for L=           0  read in
    real space projection operators read in
  non local Contribution for L=           0  read in
    real space projection operators read in
  non local Contribution for L=           1  read in
    real space projection operators read in
  non local Contribution for L=           1  read in
    real space projection operators read in
    PAW grid and wavefunctions read in

   number of l-projection  operators is LMAX  =           4
   number of lm-projection operators is LMMAX =           8

 POTCAR:    PAW_PBE H_h 06Feb2004                 
   VRHFIN =H: ultrasoft test                                                                        
   LEXCH  = PE                                                                                      
   EATOM  =    12.4884 eV,    0.9179 Ry                                                             
                                                                                                    
   TITEL  = PAW_PBE H_h 06Feb2004                                                                   
   LULTRA =        F    use ultrasoft PP ?                                                          
   IUNSCR =        0    unscreen: 0-lin 1-nonlin 2-no                                               
   RPACOR =    0.000    partial core radius                                                         
   POMASS =    1.000; ZVAL   =    1.000    mass and valenz                                          
   RCORE  =    0.800    outmost cutoff radius                                                       
   RWIGS  =    0.700; RWIGS  =    0.370    wigner-seitz radius (au A)                               
   ENMAX  =  700.000; ENMIN  =  350.000 eV                                                          
   RCLOC  =    0.701    cutoff for local pot                                                        
   LCOR   =        T    correct aug charges                                                         
   LPAW   =        T    paw PP                                                                      
   EAUG   = 1000.000                                                                                
   RMAX   =    0.819    core radius for proj-oper                                                   
   RAUG   =    1.000    factor for augmentation sphere                                              
   RDEP   =    0.817    radius for radial grids                                                     
   RDEPT  =    0.817    core radius for aug-charge                                                  
                                                                                                    
   Atomic configuration                                                                             
    2 entries                                                                                       
     n  l   j            E        occ.                                                              
     1  0  0.50        -6.4927   1.0000                                                             
     2  1  0.50        -3.4015   0.0000                                                             
   Description                                                                                      
     l       E           TYP  RCUT    TYP  RCUT                                                     
     0     -6.4927493     23  0.800                                                                 
     0      6.8029130     23  0.800                                                                 
     1     -6.8029130     23  0.800                                                                 
  local pseudopotential read in
  atomic valenz-charges read in
  non local Contribution for L=           0  read in
    real space projection operators read in
  non local Contribution for L=           0  read in
    real space projection operators read in
  non local Contribution for L=           1  read in
    real space projection operators read in
    PAW grid and wavefunctions read in

   number of l-projection  operators is LMAX  =           3
   number of lm-projection operators is LMMAX =           5

 -----------------------------------------------------------------------------
|                                                                             |
|               ----> ADVICE to this user running VASP <----                  |
|                                                                             |
|     You have a (more or less) 'large supercell' and for larger cells it     |
|     might be more efficient to use real-space projection operators.         |
|     Therefore, try LREAL= Auto in the INCAR file.                           |
|     Mind: For very accurate calculation, you might also keep the            |
|     reciprocal projection scheme (i.e. LREAL=.FALSE.).                      |
|                                                                             |
 -----------------------------------------------------------------------------

 -----------------------------------------------------------------------------
|                                                                             |
|               ----> ADVICE to this user running VASP <----                  |
|                                                                             |
|     You enforced a specific xc type in the INCAR file but a different       |
|     type was found in the POTCAR file.                                      |
|     I HOPE YOU KNOW WHAT YOU ARE DOING!                                     |
|                                                                             |
 -----------------------------------------------------------------------------

  PAW_PBE C_h 06Feb2004                 :
 energy of atom  1       EATOM= -147.1560
 kinetic energy error for atom=    0.0031 (will be added to EATOM!!)
  PAW_PBE N_h 06Feb2004                 :
 energy of atom  2       EATOM= -264.5486
 kinetic energy error for atom=    0.0081 (will be added to EATOM!!)
  PAW_PBE H_h 06Feb2004                 :
 energy of atom  3       EATOM=  -12.4884
 kinetic energy error for atom=    0.0006 (will be added to EATOM!!)


 POSCAR:  C  N  H
  positions in cartesian coordinates
  No initial velocities read in
 exchange correlation table for  LEXCH =       12
   RHO(1)=    0.500       N(1)  =     2000
   RHO(2)=  100.500       N(2)  =     4000

 VTST: version 4.1, (05/19/21)

 CHAIN: initializing optimizer
 
 OPT: Using VASP Dynamics algorithm
 CHAIN: Read ICHAIN            0

 POSCAR:  C  N  H
  positions in cartesian coordinates
  No initial velocities read in



--------------------------------------------------------------------------------------------------------


 ion  position               nearest neighbor table
   1  0.156  0.217  0.179-  25 1.08  17 1.33  13 1.36
   2  0.844  0.783  0.821-  26 1.08  18 1.33  14 1.36
   3  0.844  0.717  0.321-  27 1.08  19 1.33  15 1.36
   4  0.156  0.283  0.679-  28 1.08  20 1.33  16 1.36
   5  0.309  0.554  0.299-  29 1.08   9 1.37  17 1.38
   6  0.691  0.446  0.701-  30 1.08  10 1.37  18 1.38
   7  0.691  0.054  0.201-  31 1.08  11 1.37  19 1.38
   8  0.309  0.946  0.799-  32 1.08  12 1.37  20 1.38
   9  0.317  0.548  0.162-  33 1.08   5 1.37  13 1.38
  10  0.683  0.452  0.838-  34 1.08   6 1.37  14 1.38
  11  0.683  0.048  0.338-  35 1.08   7 1.37  15 1.38
  12  0.317  0.952  0.662-  36 1.08   8 1.37  16 1.38
  13  0.219  0.333  0.087-  21 1.05   1 1.36   9 1.38
  14  0.781  0.667  0.913-  22 1.05   2 1.36  10 1.38
  15  0.781  0.833  0.413-  23 1.05   3 1.36  11 1.38
  16  0.219  0.167  0.587-  24 1.05   4 1.36  12 1.38
  17  0.208  0.346  0.309-   1 1.33   5 1.38
  18  0.792  0.654  0.691-   2 1.33   6 1.38
  19  0.792  0.846  0.191-   3 1.33   7 1.38
  20  0.208  0.154  0.809-   4 1.33   8 1.38
  21  0.204  0.266  0.980-  13 1.05
  22  0.796  0.734  0.020-  14 1.05
  23  0.796  0.766  0.520-  15 1.05
  24  0.204  0.234  0.480-  16 1.05
  25  0.076  0.042  0.150-   1 1.08
  26  0.924  0.958  0.850-   2 1.08
  27  0.924  0.542  0.350-   3 1.08
  28  0.076  0.458  0.650-   4 1.08
  29  0.370  0.694  0.390-   5 1.08
  30  0.630  0.306  0.610-   6 1.08
  31  0.630  0.194  0.110-   7 1.08
  32  0.370  0.806  0.890-   8 1.08
  33  0.383  0.675  0.114-   9 1.08
  34  0.617  0.325  0.886-  10 1.08
  35  0.617  0.175  0.386-  11 1.08
  36  0.383  0.825  0.614-  12 1.08

  LATTYP: Found a simple monoclinic cell.
 ALAT       =     7.5820000000
 B/A-ratio  =     0.7083882881
 C/A-ratio  =     1.1899740303
 COS(beta)  =    -0.3146286263
  
  Lattice vectors:
  
 A1 = (   7.5820000000,   0.0000000000,   0.0000000000)
 A2 = (   0.0000000000,  -5.3710000000,   0.0000000000)
 A3 = (  -2.8387000000,   0.0000000000,  -8.5641800000)


Analysis of symmetry for initial positions (statically):
=====================================================================
 Subroutine PRICEL returns:
 Original cell was already a primitive cell.
 

 Routine SETGRP: Setting up the symmetry group for a 
 simple monoclinic supercell.


 Subroutine GETGRP returns: Found  2 space group operations
 (whereof  2 operations were pure point group operations)
 out of a pool of  4 trial point group operations.


The static configuration has the point symmetry S_2 .


Analysis of symmetry for dynamics (positions and initial velocities):
=====================================================================
 Subroutine PRICEL returns:
 Original cell was already a primitive cell.
 

 Routine SETGRP: Setting up the symmetry group for a 
 simple monoclinic supercell.


 Subroutine GETGRP returns: Found  2 space group operations
 (whereof  2 operations were pure point group operations)
 out of a pool of  4 trial point group operations.


The dynamic configuration has the point symmetry S_2 .


 Subroutine INISYM returns: Found  2 space group operations
 (whereof  2 operations are pure point group operations),
 and found     1 'primitive' translations


----------------------------------------------------------------------------------------

                                     Primitive cell                                     

  volume of cell :     348.7584

  direct lattice vectors                    reciprocal lattice vectors
     7.582000000  0.000000000  0.000000000     0.131891322 -0.000000000  0.073048454
     0.000000000  5.371000000  0.000000000     0.000000000  0.186185068 -0.000000000
    -4.743300000  0.000000000  8.564180000     0.000000000  0.000000000  0.116765411

  length of vectors
     7.582000000  5.371000000  9.789998670     0.150769351  0.186185068  0.116765411

  position of ions in fractional coordinates (direct lattice)
     0.156416198  0.217487408  0.178915737
     0.843583803  0.782512588  0.821084266
     0.843583870  0.717487415  0.321084298
     0.156416134  0.282512551  0.678915696
     0.308916486  0.553856359  0.299282603
     0.691083522  0.446143649  0.700717377
     0.691083615  0.053856372  0.200717384
     0.308916389  0.946143592  0.799282601
     0.316818224  0.547687641  0.161950642
     0.683181789  0.452312328  0.838049340
     0.683181872  0.047687723  0.338049379
     0.316818158  0.952312268  0.661950620
     0.218803630  0.332944431  0.086653585
     0.781196381  0.667055528  0.913346413
     0.781196445  0.832944447  0.413346424
     0.218803585  0.167055547  0.586653579
     0.208188638  0.346231089  0.309336190
     0.791811364  0.653768937  0.690663804
     0.791811420  0.846231032  0.190663810
     0.208188570  0.153768915  0.809336177
     0.204180763  0.266496945  0.980432809
     0.795819241  0.733503001  0.019567191
     0.795819287  0.766497008  0.519567197
     0.204180742  0.233503002  0.480432808
     0.076036641  0.041789653  0.150044107
     0.923963358  0.958210347  0.849955907
     0.923963407  0.541789636  0.349955910
     0.076036593  0.458210330  0.650044087
     0.369658204  0.693772397  0.390318328
     0.630341810  0.306227623  0.609681645
     0.630341871  0.193772369  0.109681681
     0.369658131  0.806227585  0.890318302
     0.383478735  0.674787196  0.113944208
     0.616521286  0.325212750  0.886055769
     0.616521382  0.174787247  0.386055791
     0.383478661  0.825212757  0.613944208

  ion indices of the primitive-cell ions
   primitive index   ion index
                 1           1
                 2           2
                 3           3
                 4           4
                 5           5
                 6           6
                 7           7
                 8           8
                 9           9
                10          10
                11          11
                12          12
                13          13
                14          14
                15          15
                16          16
                17          17
                18          18
                19          19
                20          20
                21          21
                22          22
                23          23
                24          24
                25          25
                26          26
                27          27
                28          28
                29          29
                30          30
                31          31
                32          32
                33          33
                34          34
                35          35
                36          36

----------------------------------------------------------------------------------------



 KPOINTS: auto                                    

Automatic generation of k-mesh.
 Grid dimensions read from file:
 generate k-points for:    4    5    3

 Generating k-lattice:

  Cartesian coordinates                     Fractional coordinates (reciprocal lattice)
     0.032972830 -0.000000000  0.018262113     0.250000000  0.000000000 -0.000000000
     0.000000000  0.037237014 -0.000000000     0.000000000  0.200000000  0.000000000
     0.000000000  0.000000000  0.038921804     0.000000000  0.000000000  0.333333333

  Length of vectors
     0.037692338  0.037237014  0.038921804

  Shift w.r.t. Gamma in fractional coordinates (k-lattice)
     0.000000000  0.000000000  0.000000000

 
 Subroutine IBZKPT returns following result:
 ===========================================
 
 Found     31 irreducible k-points:
 
 Following reciprocal coordinates:
            Coordinates               Weight
  0.000000  0.000000  0.000000      1.000000
  0.250000  0.000000  0.000000      2.000000
  0.500000  0.000000  0.000000      1.000000
  0.000000  0.200000  0.000000      2.000000
  0.250000  0.200000  0.000000      2.000000
 -0.250000  0.200000  0.000000      2.000000
  0.500000  0.200000  0.000000      2.000000
  0.000000  0.400000  0.000000      2.000000
  0.250000  0.400000  0.000000      2.000000
 -0.250000  0.400000  0.000000      2.000000
  0.500000  0.400000  0.000000      2.000000
  0.000000  0.000000  0.333333      2.000000
  0.250000  0.000000  0.333333      2.000000
  0.500000  0.000000  0.333333      2.000000
 -0.250000  0.000000  0.333333      2.000000
  0.000000  0.200000  0.333333      2.000000
  0.000000  0.200000 -0.333333      2.000000
  0.250000  0.200000  0.333333      2.000000
 -0.250000  0.200000 -0.333333      2.000000
  0.500000  0.200000  0.333333      2.000000
  0.500000  0.200000 -0.333333      2.000000
 -0.250000  0.200000  0.333333      2.000000
  0.250000  0.200000 -0.333333      2.000000
  0.000000  0.400000  0.333333      2.000000
  0.000000  0.400000 -0.333333      2.000000
  0.250000  0.400000  0.333333      2.000000
 -0.250000  0.400000 -0.333333      2.000000
  0.500000  0.400000  0.333333      2.000000
  0.500000  0.400000 -0.333333      2.000000
 -0.250000  0.400000  0.333333      2.000000
  0.250000  0.400000 -0.333333      2.000000
 
 Following cartesian coordinates:
            Coordinates               Weight
  0.000000  0.000000  0.000000      1.000000
  0.032973  0.000000  0.018262      2.000000
  0.065946  0.000000  0.036524      1.000000
  0.000000  0.037237  0.000000      2.000000
  0.032973  0.037237  0.018262      2.000000
 -0.032973  0.037237 -0.018262      2.000000
  0.065946  0.037237  0.036524      2.000000
  0.000000  0.074474  0.000000      2.000000
  0.032973  0.074474  0.018262      2.000000
 -0.032973  0.074474 -0.018262      2.000000
  0.065946  0.074474  0.036524      2.000000
  0.000000  0.000000  0.038922      2.000000
  0.032973  0.000000  0.057184      2.000000
  0.065946  0.000000  0.075446      2.000000
 -0.032973  0.000000  0.020660      2.000000
  0.000000  0.037237  0.038922      2.000000
  0.000000  0.037237 -0.038922      2.000000
  0.032973  0.037237  0.057184      2.000000
 -0.032973  0.037237 -0.057184      2.000000
  0.065946  0.037237  0.075446      2.000000
  0.065946  0.037237 -0.002398      2.000000
 -0.032973  0.037237  0.020660      2.000000
  0.032973  0.037237 -0.020660      2.000000
  0.000000  0.074474  0.038922      2.000000
  0.000000  0.074474 -0.038922      2.000000
  0.032973  0.074474  0.057184      2.000000
 -0.032973  0.074474 -0.057184      2.000000
  0.065946  0.074474  0.075446      2.000000
  0.065946  0.074474 -0.002398      2.000000
 -0.032973  0.074474  0.020660      2.000000
  0.032973  0.074474 -0.020660      2.000000
 


--------------------------------------------------------------------------------------------------------




 Dimension of arrays:
   k-points           NKPTS =     31   k-points in BZ     NKDIM =     31   number of bands    NBANDS=    128
   number of dos      NEDOS =    301   number of ions     NIONS =     36
   non local maximal  LDIM  =      4   non local SUM 2l+1 LMDIM =      8
   total plane-waves  NPLWV = 483840
   max r-space proj   IRMAX =      1   max aug-charges    IRDMAX=  10052
   dimension x,y,z NGX =    80 NGY =   56 NGZ =  108
   dimension x,y,z NGXF=   160 NGYF=  112 NGZF=  216
   support grid    NGXF=   160 NGYF=  112 NGZF=  216
   ions per type =              12   8  16
   NGX,Y,Z   is equivalent  to a cutoff of  17.54, 17.33, 18.34 a.u.
   NGXF,Y,Z  is equivalent  to a cutoff of  35.08, 34.67, 36.68 a.u.

 SYSTEM =  unknown system                          
 POSCAR =   C  N  H                                

 Startparameter for this run:
   NWRITE =      2    write-flag & timer
   PREC   = accura    normal or accurate (medium, high low for compatibility)
   ISTART =      0    job   : 0-new  1-cont  2-samecut
   ICHARG =      2    charge: 1-file 2-atom 10-const
   ISPIN  =      1    spin polarized calculation?
   LNONCOLLINEAR =      F non collinear calculations
   LSORBIT =      F    spin-orbit coupling
   INIWAV =      1    electr: 0-lowe 1-rand  2-diag
   LASPH  =      F    aspherical Exc in radial PAW
 Electronic Relaxation 1
   ENCUT  = 1000.0 eV  73.50 Ry    8.57 a.u.  19.55 13.85 25.24*2*pi/ulx,y,z
   ENINI  = 1000.0     initial cutoff
   ENAUG  = 1000.0 eV  augmentation charge cutoff
   NELM   =     60;   NELMIN=  2; NELMDL= -5     # of ELM steps 
   EDIFF  = 0.1E-06   stopping-criterion for ELM
   LREAL  =      F    real-space projection
   NLSPLINE    = F    spline interpolate recip. space projectors
   LCOMPAT=      F    compatible to vasp.4.4
   GGA_COMPAT  = T    GGA compatible to vasp.4.4-vasp.4.6
   LMAXPAW     = -100 max onsite density
   LMAXMIX     =    2 max onsite mixed and CHGCAR
   VOSKOWN=      0    Vosko Wilk Nusair interpolation
   ROPT   =    0.00000   0.00000   0.00000
 Ionic relaxation
   EDIFFG = 0.1E-05   stopping-criterion for IOM
   NSW    =      0    number of steps for IOM
   NBLOCK =      1;   KBLOCK =      1    inner block; outer block 
   IBRION =     -1    ionic relax: 0-MD 1-quasi-New 2-CG
   NFREE  =      0    steps in history (QN), initial steepest desc. (CG)
   ISIF   =      0    stress and relaxation
   IWAVPR =     10    prediction:  0-non 1-charg 2-wave 3-comb
   ISYM   =      2    0-nonsym 1-usesym 2-fastsym
   LCORR  =      T    Harris-Foulkes like correction to forces

   POTIM  = 0.5000    time-step for ionic-motion
   TEIN   =    0.0    initial temperature
   TEBEG  =    0.0;   TEEND  =   0.0 temperature during run
   SMASS  =  -3.00    Nose mass-parameter (am)
   estimated Nose-frequenzy (Omega)   =  0.10E-29 period in steps = 0.13E+47 mass=  -0.131E-26a.u.
   SCALEE = 1.0000    scale energy and forces
   NPACO  =    256;   APACO  = 10.0  distance and # of slots for P.C.
   PSTRESS=    0.0 pullay stress

  Mass of Ions in am
   POMASS =  12.01 14.00  1.00
  Ionic Valenz
   ZVAL   =   4.00  5.00  1.00
  Atomic Wigner-Seitz radii
   RWIGS  =  -1.00 -1.00 -1.00
  virtual crystal weights 
   VCA    =   1.00  1.00  1.00
   NELECT =     104.0000    total number of electrons
   NUPDOWN=      -1.0000    fix difference up-down

 DOS related values:
   EMIN   =  10.00;   EMAX   =-10.00  energy-range for DOS
   EFERMI =   0.00;   METHOD = LEGACY      
   ISMEAR =     0;   SIGMA  =   0.01  broadening in eV -4-tet -1-fermi 0-gaus

 Electronic relaxation 2 (details)
   IALGO  =     58    algorithm
   LDIAG  =      T    sub-space diagonalisation (order eigenvalues)
   LSUBROT=      F    optimize rotation matrix (better conditioning)
   TURBO    =      0    0=normal 1=particle mesh
   IRESTART =      0    0=no restart 2=restart with 2 vectors
   NREBOOT  =      0    no. of reboots
   NMIN     =      0    reboot dimension
   EREF     =   0.00    reference energy to select bands
   IMIX   =      4    mixing-type and parameters
     AMIX     =   0.40;   BMIX     =  1.00
     AMIX_MAG =   1.60;   BMIX_MAG =  1.00
     AMIN     =   0.10
     WC   =   100.;   INIMIX=   1;  MIXPRE=   1;  MAXMIX= -45

 Intra band minimization:
   WEIMIN = 0.0000     energy-eigenvalue tresh-hold
   EBREAK =  0.20E-09  absolut break condition
   DEPER  =   0.30     relativ break condition  

   TIME   =   0.40     timestep for ELM

  volume/ion in A,a.u.               =       9.69        65.38
  Fermi-wavevector in a.u.,A,eV,Ry     =   1.093732  2.066854 16.275974  1.196250
  Thomas-Fermi vector in A             =   2.230023

 Write flags
   LWAVE        =      F    write WAVECAR
   LDOWNSAMPLE  =      F    k-point downsampling of WAVECAR
   LCHARG       =      T    write CHGCAR
   LVTOT        =      F    write LOCPOT, total local potential
   LVHAR        =      F    write LOCPOT, Hartree potential only
   LELF         =      F    write electronic localiz. function (ELF)
   LORBIT       =      0    0 simple, 1 ext, 2 COOP (PROOUT), +10 PAW based schemes


 Dipole corrections
   LMONO  =      F    monopole corrections only (constant potential shift)
   LDIPOL =      F    correct potential (dipole corrections)
   IDIPOL =      0    1-x, 2-y, 3-z, 4-all directions 
   EPSILON=  1.0000000 bulk dielectric constant

 Exchange correlation treatment:
   GGA     =    B5    GGA type
   LEXCH   =    12    internal setting for exchange type
   LIBXC   =     F    Libxc                    
   VOSKOWN =     0    Vosko Wilk Nusair interpolation
   LHFCALC =     F    Hartree Fock is set to
   LHFONE  =     F    Hartree Fock one center treatment
   AEXX    =    0.0000 exact exchange contribution

 Linear response parameters
   LEPSILON=     F    determine dielectric tensor
   LRPA    =     F    only Hartree local field effects (RPA)
   LNABLA  =     F    use nabla operator in PAW spheres
   LVEL    =     F    velocity operator in full k-point grid
   CSHIFT  =0.1000    complex shift for real part using Kramers Kronig
   OMEGAMAX=  -1.0    maximum frequency
   DEG_THRESHOLD= 0.2000000E-02 threshold for treating states as degnerate
   RTIME   =   -0.100 relaxation time in fs
  (WPLASMAI=    0.000 imaginary part of plasma frequency in eV, 0.658/RTIME)
   DFIELD  = 0.0000000 0.0000000 0.0000000 field for delta impulse in time

  Optional k-point grid parameters
   LKPOINTS_OPT  =     F    use optional k-point grid
   KPOINTS_OPT_MODE=     1    mode for optional k-point grid

 Orbital magnetization related:
   ORBITALMAG=     F  switch on orbital magnetization
   LCHIMAG   =     F  perturbation theory with respect to B field
   DQ        =  0.001000  dq finite difference perturbation B field
   LLRAUG    =     F  two centre corrections for induced B field
   LBONE     =     F  B-component reconstruction in AE one-centre
   LVGVCALC  =     T  calculate vGv susceptibility
   LVGVAPPL  =     F  apply vGv susceptibility instead of pGv for G=0

 Random number generation:
   RANDOM_GENERATOR = DEFAULT
   PCG_SEED         = not used


--------------------------------------------------------------------------------------------------------


 Static calculation
 charge density and potential will be updated during run
 non-spin polarized calculation
 Conjugate gradient for all bands (Freysoldt, et al. PRB 79, 241103 (2009))
 preconditioned conjugated gradient                                        
 perform sub-space diagonalisation
    before iterative eigenvector-optimisation
 modified Broyden-mixing scheme, WC =      100.0
 initial mixing is a Kerker type mixing with AMIX =  0.4000 and BMIX =      1.0000
 Hartree-type preconditioning will be used
 using additional bands           76
 reciprocal scheme for non local part
 use partial core corrections
 no Harris-corrections to forces 
 use gradient corrections 
 use of overlap-Matrix (Vanderbilt PP)
 Gauss-broadening in eV      SIGMA  =   0.01


--------------------------------------------------------------------------------------------------------


  energy-cutoff  :     1000.00
  volume of cell :      348.76
      direct lattice vectors                 reciprocal lattice vectors
     7.582000000  0.000000000  0.000000000     0.131891322 -0.000000000  0.073048454
     0.000000000  5.371000000  0.000000000     0.000000000  0.186185068 -0.000000000
    -4.743300000  0.000000000  8.564180000     0.000000000  0.000000000  0.116765411

  length of vectors
     7.582000000  5.371000000  9.789998670     0.150769351  0.186185068  0.116765411



 k-points in units of 2pi/SCALE and weight: auto                                    
   0.00000000  0.00000000  0.00000000       0.017
   0.03297283  0.00000000  0.01826211       0.033
   0.06594566  0.00000000  0.03652423       0.017
   0.00000000  0.03723701  0.00000000       0.033
   0.03297283  0.03723701  0.01826211       0.033
  -0.03297283  0.03723701 -0.01826211       0.033
   0.06594566  0.03723701  0.03652423       0.033
   0.00000000  0.07447403  0.00000000       0.033
   0.03297283  0.07447403  0.01826211       0.033
  -0.03297283  0.07447403 -0.01826211       0.033
   0.06594566  0.07447403  0.03652423       0.033
   0.00000000  0.00000000  0.03892180       0.033
   0.03297283  0.00000000  0.05718392       0.033
   0.06594566  0.00000000  0.07544603       0.033
  -0.03297283  0.00000000  0.02065969       0.033
   0.00000000  0.03723701  0.03892180       0.033
   0.00000000  0.03723701 -0.03892180       0.033
   0.03297283  0.03723701  0.05718392       0.033
  -0.03297283  0.03723701 -0.05718392       0.033
   0.06594566  0.03723701  0.07544603       0.033
   0.06594566  0.03723701 -0.00239758       0.033
  -0.03297283  0.03723701  0.02065969       0.033
   0.03297283  0.03723701 -0.02065969       0.033
   0.00000000  0.07447403  0.03892180       0.033
   0.00000000  0.07447403 -0.03892180       0.033
   0.03297283  0.07447403  0.05718392       0.033
  -0.03297283  0.07447403 -0.05718392       0.033
   0.06594566  0.07447403  0.07544603       0.033
   0.06594566  0.07447403 -0.00239758       0.033
  -0.03297283  0.07447403  0.02065969       0.033
   0.03297283  0.07447403 -0.02065969       0.033

 k-points in reciprocal lattice and weights: auto                                    
   0.00000000  0.00000000  0.00000000       0.017
   0.25000000  0.00000000  0.00000000       0.033
   0.50000000  0.00000000  0.00000000       0.017
   0.00000000  0.20000000  0.00000000       0.033
   0.25000000  0.20000000  0.00000000       0.033
  -0.25000000  0.20000000  0.00000000       0.033
   0.50000000  0.20000000  0.00000000       0.033
   0.00000000  0.40000000  0.00000000       0.033
   0.25000000  0.40000000  0.00000000       0.033
  -0.25000000  0.40000000  0.00000000       0.033
   0.50000000  0.40000000  0.00000000       0.033
   0.00000000  0.00000000  0.33333333       0.033
   0.25000000  0.00000000  0.33333333       0.033
   0.50000000  0.00000000  0.33333333       0.033
  -0.25000000  0.00000000  0.33333333       0.033
   0.00000000  0.20000000  0.33333333       0.033
   0.00000000  0.20000000 -0.33333333       0.033
   0.25000000  0.20000000  0.33333333       0.033
  -0.25000000  0.20000000 -0.33333333       0.033
   0.50000000  0.20000000  0.33333333       0.033
   0.50000000  0.20000000 -0.33333333       0.033
  -0.25000000  0.20000000  0.33333333       0.033
   0.25000000  0.20000000 -0.33333333       0.033
   0.00000000  0.40000000  0.33333333       0.033
   0.00000000  0.40000000 -0.33333333       0.033
   0.25000000  0.40000000  0.33333333       0.033
  -0.25000000  0.40000000 -0.33333333       0.033
   0.50000000  0.40000000  0.33333333       0.033
   0.50000000  0.40000000 -0.33333333       0.033
  -0.25000000  0.40000000  0.33333333       0.033
   0.25000000  0.40000000 -0.33333333       0.033

 position of ions in fractional coordinates (direct lattice) 
   0.15641620  0.21748741  0.17891574
   0.84358380  0.78251259  0.82108427
   0.84358387  0.71748742  0.32108430
   0.15641613  0.28251255  0.67891570
   0.30891649  0.55385636  0.29928260
   0.69108352  0.44614365  0.70071738
   0.69108362  0.05385637  0.20071738
   0.30891639  0.94614359  0.79928260
   0.31681822  0.54768764  0.16195064
   0.68318179  0.45231233  0.83804934
   0.68318187  0.04768772  0.33804938
   0.31681816  0.95231227  0.66195062
   0.21880363  0.33294443  0.08665359
   0.78119638  0.66705553  0.91334641
   0.78119645  0.83294445  0.41334642
   0.21880358  0.16705555  0.58665358
   0.20818864  0.34623109  0.30933619
   0.79181136  0.65376894  0.69066380
   0.79181142  0.84623103  0.19066381
   0.20818857  0.15376891  0.80933618
   0.20418076  0.26649694  0.98043281
   0.79581924  0.73350300  0.01956719
   0.79581929  0.76649701  0.51956720
   0.20418074  0.23350300  0.48043281
   0.07603664  0.04178965  0.15004411
   0.92396336  0.95821035  0.84995591
   0.92396341  0.54178964  0.34995591
   0.07603659  0.45821033  0.65004409
   0.36965820  0.69377240  0.39031833
   0.63034181  0.30622762  0.60968165
   0.63034187  0.19377237  0.10968168
   0.36965813  0.80622758  0.89031830
   0.38347873  0.67478720  0.11394421
   0.61652129  0.32521275  0.88605577
   0.61652138  0.17478725  0.38605579
   0.38347866  0.82521276  0.61394421

 position of ions in cartesian coordinates  (Angst):
   0.33729660  1.16812487  1.53226658
   2.50140339  4.20287511  7.03191345
   4.87305375  3.85362491  2.74982372
  -2.03435370  1.51737491  5.81435623
   0.92261763  2.97476250  2.56311008
   1.91608253  2.39623754  6.00106975
   4.28773320  0.28926257  1.71897980
  -1.44903310  5.08173723  6.84520007
   1.63393529  2.94163032  1.38697445
   1.20476490  2.42936951  7.17720539
   3.57641534  0.25613076  2.89511573
  -0.73771510  5.11486919  5.66906426
   1.24794517  1.78824454  0.74211690
   1.59075492  3.58275524  7.82206308
   3.96240535  4.47374463  3.53997318
  -1.12370514  0.89725534  5.02420685
   0.11121190  1.85960718  2.64921081
   2.72748814  3.51139296  5.91496913
   5.09913854  4.54510687  1.63287919
  -2.26043855  0.82589284  6.93130070
  -3.10238840  1.43135509  8.39660305
   5.94108843  3.93964462  0.16757695
   3.56943875  4.11685543  4.44966700
  -0.73073855  1.25414462  4.11451304
  -0.13519440  0.22445223  1.28500474
   2.97389433  5.14654777  7.27917538
   5.34554468  2.90995214  2.99708540
  -2.50684467  2.46104768  5.56709457
   0.95135157  3.72625155  3.34275642
   1.88734865  1.64474856  5.22142335
   4.25899894  1.04075140  0.93933366
  -1.42029886  4.33024836  7.62484620
   2.36706420  3.62428203  0.97583871
   0.47163606  1.74671768  7.58834109
   2.84328669  0.93878230  3.30625128
  -0.00458635  4.43221772  5.25792871



--------------------------------------------------------------------------------------------------------


 k-point   1 :   0.0000 0.0000 0.0000  plane waves:   25025
 k-point   2 :   0.2500 0.0000 0.0000  plane waves:   25026
 k-point   3 :   0.5000 0.0000 0.0000  plane waves:   25070
 k-point   4 :   0.0000 0.2000 0.0000  plane waves:   25058
 k-point   5 :   0.2500 0.2000 0.0000  plane waves:   25003
 k-point   6 :  -0.2500 0.2000 0.0000  plane waves:   25003
 k-point   7 :   0.5000 0.2000 0.0000  plane waves:   25026
 k-point   8 :   0.0000 0.4000 0.0000  plane waves:   25074
 k-point   9 :   0.2500 0.4000 0.0000  plane waves:   25078
 k-point  10 :  -0.2500 0.4000 0.0000  plane waves:   25078
 k-point  11 :   0.5000 0.4000 0.0000  plane waves:   25036
 k-point  12 :   0.0000 0.0000 0.3333  plane waves:   25001
 k-point  13 :   0.2500 0.0000 0.3333  plane waves:   25054
 k-point  14 :   0.5000 0.0000 0.3333  plane waves:   25041
 k-point  15 :  -0.2500 0.0000 0.3333  plane waves:   25027
 k-point  16 :   0.0000 0.2000 0.3333  plane waves:   25063
 k-point  17 :   0.0000 0.2000-0.3333  plane waves:   25063
 k-point  18 :   0.2500 0.2000 0.3333  plane waves:   25037
 k-point  19 :  -0.2500 0.2000-0.3333  plane waves:   25037
 k-point  20 :   0.5000 0.2000 0.3333  plane waves:   25031
 k-point  21 :   0.5000 0.2000-0.3333  plane waves:   25031
 k-point  22 :  -0.2500 0.2000 0.3333  plane waves:   25036
 k-point  23 :   0.2500 0.2000-0.3333  plane waves:   25036
 k-point  24 :   0.0000 0.4000 0.3333  plane waves:   25055
 k-point  25 :   0.0000 0.4000-0.3333  plane waves:   25055
 k-point  26 :   0.2500 0.4000 0.3333  plane waves:   25061
 k-point  27 :  -0.2500 0.4000-0.3333  plane waves:   25061
 k-point  28 :   0.5000 0.4000 0.3333  plane waves:   25034
 k-point  29 :   0.5000 0.4000-0.3333  plane waves:   25034
 k-point  30 :  -0.2500 0.4000 0.3333  plane waves:   25049
 k-point  31 :   0.2500 0.4000-0.3333  plane waves:   25049

 maximum and minimum number of plane-waves per node :     12570    12452

 maximum number of plane-waves:     25078
 maximum index in each direction: 
   IXMAX=   19   IYMAX=   13   IZMAX=   25
   IXMIN=  -20   IYMIN=  -14   IZMIN=  -25


 parallel 3D FFT for wavefunctions:
    minimum data exchange during FFTs selected (reduces bandwidth)
 parallel 3D FFT for charge:
    minimum data exchange during FFTs selected (reduces bandwidth)


 total amount of memory used by VASP MPI-rank0   151075. kBytes
=======================================================================

   base      :      30000. kBytes
   nonl-proj :      82722. kBytes
   fftplans  :       7983. kBytes
   grid      :      11271. kBytes
   one-center:         55. kBytes
   wavefun   :      19044. kBytes

     INWAV:  cpu time      0.0003: real time      0.0005
 Broyden mixing: mesh for mixing (old mesh)
   NGX = 39   NGY = 27   NGZ = 51
  (NGX  =160   NGY  =112   NGZ  =216)
  gives a total of  53703 points

 initial charge density was supplied:
 charge density of overlapping atoms calculated
 number of electron     104.0000000 magnetization 
 keeping initial charge density in first step


--------------------------------------------------------------------------------------------------------


 Maximum index for augmentation-charges            0 (set IRDMAX)


--------------------------------------------------------------------------------------------------------


 First call to EWALD:  gamma=   0.252
 Maximum number of real-space cells 3x 3x 2
 Maximum number of reciprocal cells 3x 2x 4

    FEWALD:  cpu time      0.0021: real time      0.0022


--------------------------------------- Ionic step        1  -------------------------------------------




--------------------------------------- Iteration      1(   1)  ---------------------------------------


    POTLOK:  cpu time      0.1420: real time      0.1428
    SETDIJ:  cpu time      0.0106: real time      0.0106
    TRIAL :  cpu time     19.5215: real time     19.5321
    CORREC:  cpu time      0.0012: real time      0.0012
    --------------------------------------------
      LOOP:  cpu time     19.6915: real time     19.7030

 eigenvalue-minimisations  :  7936
 total energy-change (2. order) : 0.4373762E+03  (-0.8979372E+04)
 number of electron     104.0000000 magnetization 
 augmentation part      104.0000000 magnetization 

 Free energy of the ion-electron system (eV)
  ---------------------------------------------------
  alpha Z        PSCENC =        96.04543962
  Ewald energy   TEWEN  =     -1811.74766356
  -Hartree energ DENC   =     -1855.65973572
  -exchange      EXHF   =         0.00000000
  -V(xc)+E(xc)   XCENC  =       245.47119727
  PAW double counting   =      3054.10523378    -2982.27730086
  entropy T*S    EENTRO =        -0.00034987
  eigenvalues    EBANDS =      -395.04878755
  atomic energy  EATOM  =      4086.48819666
  ---------------------------------------------------
  free energy    TOTEN  =       437.37622978 eV

  energy without entropy =      437.37657965  energy(sigma->0) =      437.37640471


--------------------------------------------------------------------------------------------------------




--------------------------------------- Iteration      1(   2)  ---------------------------------------


    TRIAL :  cpu time     50.7440: real time     50.7788
    CORREC:  cpu time      0.0003: real time      0.0003
    --------------------------------------------
      LOOP:  cpu time     50.7572: real time     50.8064

 eigenvalue-minimisations  : 11904
 total energy-change (2. order) :-0.6558409E+03  (-0.6536270E+03)
 number of electron     104.0000000 magnetization 
 augmentation part      104.0000000 magnetization 

 Free energy of the ion-electron system (eV)
  ---------------------------------------------------
  alpha Z        PSCENC =        96.04543962
  Ewald energy   TEWEN  =     -1811.74766356
  -Hartree energ DENC   =     -1855.65973572
  -exchange      EXHF   =         0.00000000
  -V(xc)+E(xc)   XCENC  =       245.47119727
  PAW double counting   =      3054.10523378    -2982.27730086
  entropy T*S    EENTRO =        -0.00000000
  eigenvalues    EBANDS =     -1050.88998913
  atomic energy  EATOM  =      4086.48819666
  ---------------------------------------------------
  free energy    TOTEN  =      -218.46462193 eV

  energy without entropy =     -218.46462193  energy(sigma->0) =     -218.46462193


--------------------------------------------------------------------------------------------------------




--------------------------------------- Iteration      1(   3)  ---------------------------------------


    TRIAL :  cpu time     33.5337: real time     33.5547
    CORREC:  cpu time      0.0003: real time      0.0003
    --------------------------------------------
      LOOP:  cpu time     33.5460: real time     33.5839

 eigenvalue-minimisations  :  9600
 total energy-change (2. order) :-0.2445682E+02  (-0.2445682E+02)
 number of electron     104.0000000 magnetization 
 augmentation part      104.0000000 magnetization 

 Free energy of the ion-electron system (eV)
  ---------------------------------------------------
  alpha Z        PSCENC =        96.04543962
  Ewald energy   TEWEN  =     -1811.74766356
  -Hartree energ DENC   =     -1855.65973572
  -exchange      EXHF   =         0.00000000
  -V(xc)+E(xc)   XCENC  =       245.47119727
  PAW double counting   =      3054.10523378    -2982.27730086
  entropy T*S    EENTRO =        -0.00000000
  eigenvalues    EBANDS =     -1075.34680723
  atomic energy  EATOM  =      4086.48819666
  ---------------------------------------------------
  free energy    TOTEN  =      -242.92144003 eV

  energy without entropy =     -242.92144003  energy(sigma->0) =     -242.92144003


--------------------------------------------------------------------------------------------------------




--------------------------------------- Iteration      1(   4)  ---------------------------------------


    TRIAL :  cpu time    103.9798: real time    104.0336
    CORREC:  cpu time      0.0003: real time      0.0003
    --------------------------------------------
      LOOP:  cpu time    103.9923: real time    104.0631

 eigenvalue-minimisations  : 15872
 total energy-change (2. order) :-0.1063357E+00  (-0.1063357E+00)
 number of electron     104.0000000 magnetization 
 augmentation part      104.0000000 magnetization 

 Free energy of the ion-electron system (eV)
  ---------------------------------------------------
  alpha Z        PSCENC =        96.04543962
  Ewald energy   TEWEN  =     -1811.74766356
  -Hartree energ DENC   =     -1855.65973572
  -exchange      EXHF   =         0.00000000
  -V(xc)+E(xc)   XCENC  =       245.47119727
  PAW double counting   =      3054.10523378    -2982.27730086
  entropy T*S    EENTRO =        -0.00000000
  eigenvalues    EBANDS =     -1075.45314290
  atomic energy  EATOM  =      4086.48819666
  ---------------------------------------------------
  free energy    TOTEN  =      -243.02777570 eV

  energy without entropy =     -243.02777570  energy(sigma->0) =     -243.02777570


--------------------------------------------------------------------------------------------------------




--------------------------------------- Iteration      1(   5)  ---------------------------------------


    TRIAL :  cpu time     20.9590: real time     20.9703
    CORREC:  cpu time      0.0003: real time      0.0003
    CHARGE:  cpu time      0.4310: real time      0.4324
    --------------------------------------------
      LOOP:  cpu time     21.4012: real time     21.4321

 eigenvalue-minimisations  :  7936
 total energy-change (2. order) :-0.3608693E-05  (-0.3608694E-05)
 number of electron     104.0000000 magnetization 
 augmentation part       -0.1078045 magnetization 

 Free energy of the ion-electron system (eV)
  ---------------------------------------------------
  alpha Z        PSCENC =        96.04543962
  Ewald energy   TEWEN  =     -1811.74766356
  -Hartree energ DENC   =     -1855.65973572
  -exchange      EXHF   =         0.00000000
  -V(xc)+E(xc)   XCENC  =       245.47119727
  PAW double counting   =      3054.10523378    -2982.27730086
  entropy T*S    EENTRO =        -0.00000000
  eigenvalues    EBANDS =     -1075.45314651
  atomic energy  EATOM  =      4086.48819666
  ---------------------------------------------------
  free energy    TOTEN  =      -243.02777931 eV

  energy without entropy =     -243.02777931  energy(sigma->0) =     -243.02777931


--------------------------------------------------------------------------------------------------------




--------------------------------------- Iteration      1(   6)  ---------------------------------------


    POTLOK:  cpu time      0.1024: real time      0.1025
    SETDIJ:  cpu time      0.0047: real time      0.0047
    TRIAL :  cpu time      4.1110: real time      4.1134
    CORREC:  cpu time      1.7413: real time      1.7430
    CHARGE:  cpu time      0.3815: real time      0.3816
    --------------------------------------------
      LOOP:  cpu time      6.3552: real time      6.3756

 eigenvalue-minimisations  :     0
 total energy-change (2. order) : 0.3843026E+02  (-0.1541697E+02)
 number of electron     104.0000000 magnetization 
 augmentation part       -0.1838918 magnetization 

 Free energy of the ion-electron system (eV)
  ---------------------------------------------------
  alpha Z        PSCENC =        96.04543962
  Ewald energy   TEWEN  =     -1811.74766356
  -Hartree energ DENC   =     -2446.09335372
  -exchange      EXHF   =         0.00000000
  -V(xc)+E(xc)   XCENC  =       279.64958449
  PAW double counting   =     24522.28668501   -24456.42725767
  entropy T*S    EENTRO =        -0.00000000
  eigenvalues    EBANDS =      -474.79915454
  atomic energy  EATOM  =      4086.48819666
  ---------------------------------------------------
  free energy    TOTEN  =      -204.59752370 eV

  energy without entropy =     -204.59752370  energy(sigma->0) =     -204.59752370


--------------------------------------------------------------------------------------------------------




--------------------------------------- Iteration      1(   7)  ---------------------------------------


    POTLOK:  cpu time      0.1063: real time      0.1063
    SETDIJ:  cpu time      0.0056: real time      0.0056
    TRIAL :  cpu time      3.8987: real time      3.9010
    CORREC:  cpu time      1.7496: real time      1.7504
    CHARGE:  cpu time      0.3808: real time      0.3808
    --------------------------------------------
      LOOP:  cpu time      6.1709: real time      6.1745

 eigenvalue-minimisations  :     0
 total energy-change (2. order) :-0.1537558E+02  (-0.2646794E+01)
 number of electron     104.0000000 magnetization 
 augmentation part       -0.2205998 magnetization 

 Free energy of the ion-electron system (eV)
  ---------------------------------------------------
  alpha Z        PSCENC =        96.04543962
  Ewald energy   TEWEN  =     -1811.74766356
  -Hartree energ DENC   =     -2203.59939526
  -exchange      EXHF   =         0.00000000
  -V(xc)+E(xc)   XCENC  =       267.67857627
  PAW double counting   =     37994.20391799   -37925.56985738
  entropy T*S    EENTRO =        -0.00000000
  eigenvalues    EBANDS =      -723.47231722
  atomic energy  EATOM  =      4086.48819666
  ---------------------------------------------------
  free energy    TOTEN  =      -219.97310289 eV

  energy without entropy =     -219.97310289  energy(sigma->0) =     -219.97310289


--------------------------------------------------------------------------------------------------------




--------------------------------------- Iteration      1(   8)  ---------------------------------------


    POTLOK:  cpu time      0.0998: real time      0.0998
    SETDIJ:  cpu time      0.0048: real time      0.0048
    TRIAL :  cpu time      3.8992: real time      3.9025
    CORREC:  cpu time      1.7625: real time      1.7636
    CHARGE:  cpu time      0.3789: real time      0.3790
    --------------------------------------------
      LOOP:  cpu time      6.1601: real time      6.1793

 eigenvalue-minimisations  :     0
 total energy-change (2. order) :-0.2605655E+01  (-0.5812460E+00)
 number of electron     104.0000000 magnetization 
 augmentation part       -0.2117853 magnetization 

 Free energy of the ion-electron system (eV)
  ---------------------------------------------------
  alpha Z        PSCENC =        96.04543962
  Ewald energy   TEWEN  =     -1811.74766356
  -Hartree energ DENC   =     -2159.87420220
  -exchange      EXHF   =         0.00000000
  -V(xc)+E(xc)   XCENC  =       265.69587694
  PAW double counting   =     37943.53843881   -37874.55062428
  entropy T*S    EENTRO =        -0.00000000
  eigenvalues    EBANDS =      -768.17421982
  atomic energy  EATOM  =      4086.48819666
  ---------------------------------------------------
  free energy    TOTEN  =      -222.57875782 eV

  energy without entropy =     -222.57875782  energy(sigma->0) =     -222.57875782


--------------------------------------------------------------------------------------------------------




--------------------------------------- Iteration      1(   9)  ---------------------------------------


    POTLOK:  cpu time      0.0995: real time      0.0999
    SETDIJ:  cpu time      0.0048: real time      0.0048
    TRIAL :  cpu time      3.8864: real time      3.8886
    CORREC:  cpu time      1.7295: real time      1.7309
    CHARGE:  cpu time      0.3778: real time      0.3787
    --------------------------------------------
      LOOP:  cpu time      6.1159: real time      6.1331

 eigenvalue-minimisations  :     0
 total energy-change (2. order) :-0.5795522E+00  (-0.9175718E-01)
 number of electron     104.0000000 magnetization 
 augmentation part       -0.2087823 magnetization 

 Free energy of the ion-electron system (eV)
  ---------------------------------------------------
  alpha Z        PSCENC =        96.04543962
  Ewald energy   TEWEN  =     -1811.74766356
  -Hartree energ DENC   =     -2149.15694610
  -exchange      EXHF   =         0.00000000
  -V(xc)+E(xc)   XCENC  =       264.96146189
  PAW double counting   =     35952.12388250   -35883.17780353
  entropy T*S    EENTRO =        -0.00000000
  eigenvalues    EBANDS =      -778.69487754
  atomic energy  EATOM  =      4086.48819666
  ---------------------------------------------------
  free energy    TOTEN  =      -223.15831006 eV

  energy without entropy =     -223.15831006  energy(sigma->0) =     -223.15831006


--------------------------------------------------------------------------------------------------------




--------------------------------------- Iteration      1(  10)  ---------------------------------------


    POTLOK:  cpu time      0.0998: real time      0.0998
    SETDIJ:  cpu time      0.0047: real time      0.0047
    TRIAL :  cpu time      3.9251: real time      3.9277
    CORREC:  cpu time      1.7259: real time      1.7264
    CHARGE:  cpu time      0.3779: real time      0.3786
    --------------------------------------------
      LOOP:  cpu time      6.1626: real time      6.1668

 eigenvalue-minimisations  :     0
 total energy-change (2. order) :-0.9176345E-01  (-0.1634119E-01)
 number of electron     104.0000000 magnetization 
 augmentation part       -0.2101522 magnetization 

 Free energy of the ion-electron system (eV)
  ---------------------------------------------------
  alpha Z        PSCENC =        96.04543962
  Ewald energy   TEWEN  =     -1811.74766356
  -Hartree energ DENC   =     -2149.21145631
  -exchange      EXHF   =         0.00000000
  -V(xc)+E(xc)   XCENC  =       264.85608001
  PAW double counting   =     34821.26973478   -34752.39998228
  entropy T*S    EENTRO =        -0.00000000
  eigenvalues    EBANDS =      -778.55042244
  atomic energy  EATOM  =      4086.48819666
  ---------------------------------------------------
  free energy    TOTEN  =      -223.25007351 eV

  energy without entropy =     -223.25007351  energy(sigma->0) =     -223.25007351


--------------------------------------------------------------------------------------------------------




--------------------------------------- Iteration      1(  11)  ---------------------------------------


    POTLOK:  cpu time      0.1002: real time      0.1002
    SETDIJ:  cpu time      0.0047: real time      0.0047
    TRIAL :  cpu time      3.9116: real time      3.9140
    CORREC:  cpu time      1.7408: real time      1.7421
    CHARGE:  cpu time      0.3741: real time      0.3741
    --------------------------------------------
      LOOP:  cpu time      6.1441: real time      6.1650

 eigenvalue-minimisations  :     0
 total energy-change (2. order) :-0.1632844E-01  (-0.3481079E-02)
 number of electron     104.0000000 magnetization 
 augmentation part       -0.2114524 magnetization 

 Free energy of the ion-electron system (eV)
  ---------------------------------------------------
  alpha Z        PSCENC =        96.04543962
  Ewald energy   TEWEN  =     -1811.74766356
  -Hartree energ DENC   =     -2149.97754326
  -exchange      EXHF   =         0.00000000
  -V(xc)+E(xc)   XCENC  =       264.85364186
  PAW double counting   =     34659.50163496   -34590.65422671
  entropy T*S    EENTRO =        -0.00000000
  eigenvalues    EBANDS =      -777.77588152
  atomic energy  EATOM  =      4086.48819666
  ---------------------------------------------------
  free energy    TOTEN  =      -223.26640195 eV

  energy without entropy =     -223.26640195  energy(sigma->0) =     -223.26640195


--------------------------------------------------------------------------------------------------------




--------------------------------------- Iteration      1(  12)  ---------------------------------------


    POTLOK:  cpu time      0.1002: real time      0.1002
    SETDIJ:  cpu time      0.0047: real time      0.0047
    TRIAL :  cpu time      3.8860: real time      3.8896
    CORREC:  cpu time      1.7301: real time      1.7317
    CHARGE:  cpu time      0.3856: real time      0.3857
    --------------------------------------------
      LOOP:  cpu time      6.1193: real time      6.1413

 eigenvalue-minimisations  :     0
 total energy-change (2. order) :-0.3478696E-02  (-0.6837884E-03)
 number of electron     104.0000000 magnetization 
 augmentation part       -0.2115673 magnetization 

 Free energy of the ion-electron system (eV)
  ---------------------------------------------------
  alpha Z        PSCENC =        96.04543962
  Ewald energy   TEWEN  =     -1811.74766356
  -Hartree energ DENC   =     -2150.12945201
  -exchange      EXHF   =         0.00000000
  -V(xc)+E(xc)   XCENC  =       264.83786639
  PAW double counting   =     34794.94572362   -34726.09161426
  entropy T*S    EENTRO =        -0.00000000
  eigenvalues    EBANDS =      -777.61837710
  atomic energy  EATOM  =      4086.48819666
  ---------------------------------------------------
  free energy    TOTEN  =      -223.26988064 eV

  energy without entropy =     -223.26988064  energy(sigma->0) =     -223.26988064


--------------------------------------------------------------------------------------------------------




--------------------------------------- Iteration      1(  13)  ---------------------------------------


    POTLOK:  cpu time      0.0999: real time      0.0999
    SETDIJ:  cpu time      0.0047: real time      0.0047
    TRIAL :  cpu time      3.9303: real time      3.9333
    CORREC:  cpu time      1.7320: real time      1.7330
    CHARGE:  cpu time      0.3738: real time      0.3738
    --------------------------------------------
      LOOP:  cpu time      6.1599: real time      6.1745

 eigenvalue-minimisations  :     0
 total energy-change (2. order) :-0.6833884E-03  (-0.1083199E-03)
 number of electron     104.0000000 magnetization 
 augmentation part       -0.2115103 magnetization 

 Free energy of the ion-electron system (eV)
  ---------------------------------------------------
  alpha Z        PSCENC =        96.04543962
  Ewald energy   TEWEN  =     -1811.74766356
  -Hartree energ DENC   =     -2150.42185134
  -exchange      EXHF   =         0.00000000
  -V(xc)+E(xc)   XCENC  =       264.84791418
  PAW double counting   =     34836.40419753   -34767.54867490
  entropy T*S    EENTRO =        -0.00000000
  eigenvalues    EBANDS =      -777.33812223
  atomic energy  EATOM  =      4086.48819666
  ---------------------------------------------------
  free energy    TOTEN  =      -223.27056403 eV

  energy without entropy =     -223.27056403  energy(sigma->0) =     -223.27056403


--------------------------------------------------------------------------------------------------------




--------------------------------------- Iteration      1(  14)  ---------------------------------------


    POTLOK:  cpu time      0.0998: real time      0.0999
    SETDIJ:  cpu time      0.0046: real time      0.0046
    TRIAL :  cpu time      3.9125: real time      3.9160
    CORREC:  cpu time      1.7317: real time      1.7330
    CHARGE:  cpu time      0.3786: real time      0.3786
    --------------------------------------------
      LOOP:  cpu time      6.1391: real time      6.1609

 eigenvalue-minimisations  :     0
 total energy-change (2. order) :-0.1085888E-03  (-0.1641737E-04)
 number of electron     104.0000000 magnetization 
 augmentation part       -0.2115068 magnetization 

 Free energy of the ion-electron system (eV)
  ---------------------------------------------------
  alpha Z        PSCENC =        96.04543962
  Ewald energy   TEWEN  =     -1811.74766356
  -Hartree energ DENC   =     -2150.40232127
  -exchange      EXHF   =         0.00000000
  -V(xc)+E(xc)   XCENC  =       264.84718966
  PAW double counting   =     34833.91916012   -34765.06295391
  entropy T*S    EENTRO =        -0.00000000
  eigenvalues    EBANDS =      -777.35771994
  atomic energy  EATOM  =      4086.48819666
  ---------------------------------------------------
  free energy    TOTEN  =      -223.27067262 eV

  energy without entropy =     -223.27067262  energy(sigma->0) =     -223.27067262


--------------------------------------------------------------------------------------------------------




--------------------------------------- Iteration      1(  15)  ---------------------------------------


    POTLOK:  cpu time      0.1009: real time      0.1014
    SETDIJ:  cpu time      0.0047: real time      0.0047
    TRIAL :  cpu time      3.8932: real time      3.8959
    CORREC:  cpu time      1.7369: real time      1.7384
    CHARGE:  cpu time      0.3763: real time      0.3768
    --------------------------------------------
      LOOP:  cpu time      6.1415: real time      6.1470

 eigenvalue-minimisations  :     0
 total energy-change (2. order) :-0.1635682E-04  (-0.2845813E-05)
 number of electron     104.0000000 magnetization 
 augmentation part       -0.2115207 magnetization 

 Free energy of the ion-electron system (eV)
  ---------------------------------------------------
  alpha Z        PSCENC =        96.04543962
  Ewald energy   TEWEN  =     -1811.74766356
  -Hartree energ DENC   =     -2150.38536833
  -exchange      EXHF   =         0.00000000
  -V(xc)+E(xc)   XCENC  =       264.84649651
  PAW double counting   =     34831.90835248   -34763.05209669
  entropy T*S    EENTRO =        -0.00000000
  eigenvalues    EBANDS =      -777.37404567
  atomic energy  EATOM  =      4086.48819666
  ---------------------------------------------------
  free energy    TOTEN  =      -223.27068898 eV

  energy without entropy =     -223.27068898  energy(sigma->0) =     -223.27068898


--------------------------------------------------------------------------------------------------------




--------------------------------------- Iteration      1(  16)  ---------------------------------------


    POTLOK:  cpu time      0.1001: real time      0.1001
    SETDIJ:  cpu time      0.0046: real time      0.0046
    TRIAL :  cpu time      3.9088: real time      3.9116
    CORREC:  cpu time      1.7340: real time      1.7347
    CHARGE:  cpu time      0.3771: real time      0.3778
    --------------------------------------------
      LOOP:  cpu time      6.1358: real time      6.1570

 eigenvalue-minimisations  :     0
 total energy-change (2. order) :-0.2739434E-05  (-0.4875287E-06)
 number of electron     104.0000000 magnetization 
 augmentation part       -0.2115338 magnetization 

 Free energy of the ion-electron system (eV)
  ---------------------------------------------------
  alpha Z        PSCENC =        96.04543962
  Ewald energy   TEWEN  =     -1811.74766356
  -Hartree energ DENC   =     -2150.38090416
  -exchange      EXHF   =         0.00000000
  -V(xc)+E(xc)   XCENC  =       264.84647307
  PAW double counting   =     34834.11585335   -34765.25963518
  entropy T*S    EENTRO =        -0.00000000
  eigenvalues    EBANDS =      -777.37845151
  atomic energy  EATOM  =      4086.48819666
  ---------------------------------------------------
  free energy    TOTEN  =      -223.27069172 eV

  energy without entropy =     -223.27069172  energy(sigma->0) =     -223.27069172


--------------------------------------------------------------------------------------------------------




--------------------------------------- Iteration      1(  17)  ---------------------------------------


    POTLOK:  cpu time      0.1001: real time      0.1001
    SETDIJ:  cpu time      0.0047: real time      0.0047
    TRIAL :  cpu time      3.9280: real time      3.9307
    CORREC:  cpu time      1.7341: real time      1.7349
    CHARGE:  cpu time      0.3775: real time      0.3783
    --------------------------------------------
      LOOP:  cpu time      6.1611: real time      6.1788

 eigenvalue-minimisations  :     0
 total energy-change (2. order) :-0.4737594E-06  (-0.1235774E-06)
 number of electron     104.0000000 magnetization 
 augmentation part       -0.2115309 magnetization 

 Free energy of the ion-electron system (eV)
  ---------------------------------------------------
  alpha Z        PSCENC =        96.04543962
  Ewald energy   TEWEN  =     -1811.74766356
  -Hartree energ DENC   =     -2150.37193120
  -exchange      EXHF   =         0.00000000
  -V(xc)+E(xc)   XCENC  =       264.84617420
  PAW double counting   =     34835.98664210   -34767.13035619
  entropy T*S    EENTRO =        -0.00000000
  eigenvalues    EBANDS =      -777.38719381
  atomic energy  EATOM  =      4086.48819666
  ---------------------------------------------------
  free energy    TOTEN  =      -223.27069219 eV

  energy without entropy =     -223.27069219  energy(sigma->0) =     -223.27069219


--------------------------------------------------------------------------------------------------------




--------------------------------------- Iteration      1(  18)  ---------------------------------------


    POTLOK:  cpu time      0.1000: real time      0.1000
    SETDIJ:  cpu time      0.0047: real time      0.0047
    TRIAL :  cpu time      3.8923: real time      3.8948
    CORREC:  cpu time      1.7381: real time      1.7395
    EDDIAG:  cpu time      1.5796: real time      1.5810
    CHARGE:  cpu time      0.3761: real time      0.3766
    --------------------------------------------
      LOOP:  cpu time      7.7041: real time      7.7255

 eigenvalue-minimisations  :     0
 total energy-change (2. order) :-0.8907227E-07  (-0.9840076E-08)
 number of electron     104.0000000 magnetization 
 augmentation part       -0.2115311 magnetization 

 Free energy of the ion-electron system (eV)
  ---------------------------------------------------
  alpha Z        PSCENC =        96.04543962
  Ewald energy   TEWEN  =     -1811.74766356
  -Hartree energ DENC   =     -2150.37701348
  -exchange      EXHF   =         0.00000000
  -V(xc)+E(xc)   XCENC  =       264.84643316
  PAW double counting   =     34835.67483346   -34766.81862448
  entropy T*S    EENTRO =        -0.00000000
  eigenvalues    EBANDS =      -777.38229367
  atomic energy  EATOM  =      4086.48819666
  ---------------------------------------------------
  free energy    TOTEN  =      -223.27069228 eV

  energy without entropy =     -223.27069228  energy(sigma->0) =     -223.27069228


--------------------------------------------------------------------------------------------------------


  average scaling for gradient   1.0861


 average (electrostatic) potential at core
  the test charge radii are     0.5770  0.5902  0.4325
  (the norm of the test charge is              1.0000)
       1 -82.3569       2 -82.3569       3 -82.3569       4 -82.3569       5 -81.4531
       6 -81.4531       7 -81.4531       8 -81.4531       9 -81.7061      10 -81.7061
      11 -81.7061      12 -81.7061      13 -99.4806      14 -99.4806      15 -99.4806
      16 -99.4806      17 -98.1132      18 -98.1132      19 -98.1132      20 -98.1132
      21 -41.5732      22 -41.5731      23 -41.5732      24 -41.5732      25 -40.8991
      26 -40.8991      27 -40.8991      28 -40.8991      29 -40.6474      30 -40.6474
      31 -40.6474      32 -40.6474      33 -40.9180      34 -40.9180      35 -40.9180
      36 -40.9180



 E-fermi :   0.3198     XC(G=0):  -7.7488     alpha+bet : -6.9974

 Fermi energy:         0.3197899817

 k-point     1 :       0.0000    0.0000    0.0000
  band No.  band energies     occupation 
      1     -19.6723      2.00000
      2     -19.5787      2.00000
      3     -19.5376      2.00000
      4     -19.5361      2.00000
      5     -16.0714      2.00000
      6     -16.0598      2.00000
      7     -15.7354      2.00000
      8     -15.7030      2.00000
      9     -12.7255      2.00000
     10     -12.6693      2.00000
     11     -12.6431      2.00000
     12     -12.6370      2.00000
     13      -9.6559      2.00000
     14      -9.5806      2.00000
     15      -9.2258      2.00000
     16      -9.1138      2.00000
     17      -8.9338      2.00000
     18      -8.9337      2.00000
     19      -8.9123      2.00000
     20      -8.7788      2.00000
     21      -8.5961      2.00000
     22      -8.2287      2.00000
     23      -7.9573      2.00000
     24      -7.9403      2.00000
     25      -5.6035      2.00000
     26      -5.5381      2.00000
     27      -5.4611      2.00000
     28      -5.2688      2.00000
     29      -5.2322      2.00000
     30      -5.1533      2.00000
     31      -4.9650      2.00000
     32      -4.8660      2.00000
     33      -4.7823      2.00000
     34      -4.7721      2.00000
     35      -4.7132      2.00000
     36      -4.5549      2.00000
     37      -4.5201      2.00000
     38      -4.4739      2.00000
     39      -4.2554      2.00000
     40      -4.2044      2.00000
     41      -1.7984      2.00000
     42      -1.6647      2.00000
     43      -1.5277      2.00000
     44      -1.4178      2.00000
     45      -1.4150      2.00000
     46      -1.2207      2.00000
     47      -1.0864      2.00000
     48      -0.9398      2.00000
     49      -0.6635      2.00000
     50      -0.4381      2.00000
     51      -0.1010      2.00000
     52       0.0883      2.00000
     53       5.0016      0.00000
     54       5.0384      0.00000
     55       5.0600      0.00000
     56       5.3964      0.00000
     57       5.5568      0.00000
     58       5.6138      0.00000
     59       5.7210      0.00000
     60       5.7729      0.00000
     61       5.9846      0.00000
     62       6.8134      0.00000
     63       7.0766      0.00000
     64       7.4016      0.00000
     65       7.6905      0.00000
     66       7.7118      0.00000
     67       7.9416      0.00000
     68       8.4185      0.00000
     69       8.5489      0.00000
     70       8.7995      0.00000
     71       8.8982      0.00000
     72       8.9261      0.00000
     73       9.1727      0.00000
     74       9.3942      0.00000
     75       9.6304      0.00000
     76       9.8428      0.00000
     77       9.8582      0.00000
     78      10.1632      0.00000
     79      10.2853      0.00000
     80      10.5944      0.00000
     81      10.6305      0.00000
     82      10.6962      0.00000
     83      11.0588      0.00000
     84      11.0840      0.00000
     85      11.6389      0.00000
     86      11.7268      0.00000
     87      11.7387      0.00000
     88      11.8503      0.00000
     89      11.9985      0.00000
     90      12.0010      0.00000
     91      12.3766      0.00000
     92      12.5624      0.00000
     93      12.8267      0.00000
     94      12.8769      0.00000
     95      12.9346      0.00000
     96      13.1803      0.00000
     97      13.2674      0.00000
     98      13.4236      0.00000
     99      13.4247      0.00000
    100      13.6236      0.00000
    101      13.7113      0.00000
    102      14.0482      0.00000
    103      14.1550      0.00000
    104      14.2666      0.00000
    105      14.2932      0.00000
    106      14.7854      0.00000
    107      15.0860      0.00000
    108      15.4108      0.00000
    109      15.7524      0.00000
    110      15.8945      0.00000
    111      15.9053      0.00000
    112      15.9636      0.00000
    113      15.9730      0.00000
    114      16.3746      0.00000
    115      16.3805      0.00000
    116      16.5395      0.00000
    117      16.5924      0.00000
    118      16.9991      0.00000
    119      17.0682      0.00000
    120      17.2872      0.00000
    121      17.4957      0.00000
    122      17.5069      0.00000
    123      17.8871      0.00000
    124      18.1542      0.00000
    125      18.1563      0.00000
    126      18.5738      0.00000
    127      18.8956      0.00000
    128      19.6534      0.00000

 k-point     2 :       0.2500    0.0000    0.0000
  band No.  band energies     occupation 
      1     -19.6603      2.00000
      2     -19.5910      2.00000
      3     -19.5555      2.00000
      4     -19.5181      2.00000
      5     -16.0847      2.00000
      6     -16.0458      2.00000
      7     -15.7388      2.00000
      8     -15.6995      2.00000
      9     -12.7292      2.00000
     10     -12.6657      2.00000
     11     -12.6540      2.00000
     12     -12.6257      2.00000
     13      -9.6845      2.00000
     14      -9.5430      2.00000
     15      -9.2175      2.00000
     16      -9.1285      2.00000
     17      -8.9299      2.00000
     18      -8.9222      2.00000
     19      -8.9098      2.00000
     20      -8.7958      2.00000
     21      -8.5708      2.00000
     22      -8.3037      2.00000
     23      -7.9841      2.00000
     24      -7.9032      2.00000
     25      -5.6373      2.00000
     26      -5.3857      2.00000
     27      -5.3541      2.00000
     28      -5.2557      2.00000
     29      -5.2261      2.00000
     30      -5.1120      2.00000
     31      -4.9637      2.00000
     32      -4.9276      2.00000
     33      -4.8973      2.00000
     34      -4.7719      2.00000
     35      -4.6386      2.00000
     36      -4.6267      2.00000
     37      -4.4993      2.00000
     38      -4.4609      2.00000
     39      -4.3286      2.00000
     40      -4.2651      2.00000
     41      -1.8023      2.00000
     42      -1.6783      2.00000
     43      -1.5256      2.00000
     44      -1.4219      2.00000
     45      -1.3830      2.00000
     46      -1.2233      2.00000
     47      -1.0723      2.00000
     48      -0.9537      2.00000
     49      -0.5683      2.00000
     50      -0.5088      2.00000
     51      -0.0396      2.00000
     52      -0.0288      2.00000
     53       4.9355      0.00000
     54       4.9475      0.00000
     55       5.1587      0.00000
     56       5.5055      0.00000
     57       5.5502      0.00000
     58       5.5825      0.00000
     59       5.7964      0.00000
     60       5.8892      0.00000
     61       6.0411      0.00000
     62       6.7460      0.00000
     63       6.8808      0.00000
     64       7.2063      0.00000
     65       7.6853      0.00000
     66       7.9603      0.00000
     67       8.1160      0.00000
     68       8.3345      0.00000
     69       8.4058      0.00000
     70       8.5547      0.00000
     71       8.9883      0.00000
     72       9.1648      0.00000
     73       9.2447      0.00000
     74       9.3459      0.00000
     75       9.6602      0.00000
     76       9.7084      0.00000
     77      10.1665      0.00000
     78      10.2653      0.00000
     79      10.3029      0.00000
[...]
     41      -1.6609      2.00000
     42      -1.6389      2.00000
     43      -1.5083      2.00000
     44      -1.4997      2.00000
     45      -1.3833      2.00000
     46      -1.3374      2.00000
     47      -1.2286      2.00000
     48      -1.1854      2.00000
     49      -0.1540      2.00000
     50      -0.0288      2.00000
     51       0.0342      2.00000
     52       0.1549      2.00000
     53       4.8347      0.00000
     54       4.9260      0.00000
     55       4.9908      0.00000
     56       5.1052      0.00000
     57       5.6593      0.00000
     58       5.6959      0.00000
     59       5.7637      0.00000
     60       5.8514      0.00000
     61       6.3577      0.00000
     62       6.4168      0.00000
     63       6.8627      0.00000
     64       7.0683      0.00000
     65       7.4500      0.00000
     66       7.7647      0.00000
     67       7.8663      0.00000
     68       7.9662      0.00000
     69       8.2711      0.00000
     70       8.3687      0.00000
     71       8.9095      0.00000
     72       8.9616      0.00000
     73       9.2688      0.00000
     74       9.3979      0.00000
     75       9.4812      0.00000
     76       9.6957      0.00000
     77      10.1047      0.00000
     78      10.2785      0.00000
     79      10.3503      0.00000
     80      10.4492      0.00000
     81      10.8584      0.00000
     82      10.9689      0.00000
     83      11.0701      0.00000
     84      11.3768      0.00000
     85      11.6376      0.00000
     86      11.7559      0.00000
     87      11.8312      0.00000
     88      12.0491      0.00000
     89      12.2402      0.00000
     90      12.3111      0.00000
     91      12.5474      0.00000
     92      12.5980      0.00000
     93      12.6434      0.00000
     94      12.9261      0.00000
     95      13.3159      0.00000
     96      13.3715      0.00000
     97      13.4058      0.00000
     98      13.4812      0.00000
     99      13.8352      0.00000
    100      13.9374      0.00000
    101      14.1161      0.00000
    102      14.1904      0.00000
    103      14.2299      0.00000
    104      14.3708      0.00000
    105      14.5328      0.00000
    106      14.6542      0.00000
    107      14.9048      0.00000
    108      15.1087      0.00000
    109      15.2789      0.00000
    110      15.5405      0.00000
    111      15.6896      0.00000
    112      15.7776      0.00000
    113      16.0223      0.00000
    114      16.1788      0.00000
    115      16.2655      0.00000
    116      16.4992      0.00000
    117      16.6161      0.00000
    118      16.9180      0.00000
    119      17.0242      0.00000
    120      17.1905      0.00000
    121      17.2396      0.00000
    122      17.4731      0.00000
    123      17.7963      0.00000
    124      18.0120      0.00000
    125      18.1448      0.00000
    126      18.3919      0.00000
    127      18.5494      0.00000
    128      18.7445      0.00000

 k-point    31 :       0.2500    0.4000   -0.3333
  band No.  band energies     occupation 
      1     -19.6147      2.00000
      2     -19.5923      2.00000
      3     -19.5495      2.00000
      4     -19.5480      2.00000
      5     -15.9814      2.00000
      6     -15.9697      2.00000
      7     -15.8157      2.00000
      8     -15.8006      2.00000
      9     -12.7805      2.00000
     10     -12.7769      2.00000
     11     -12.7234      2.00000
     12     -12.7026      2.00000
     13      -9.4866      2.00000
     14      -9.4676      2.00000
     15      -9.2241      2.00000
     16      -9.1943      2.00000
     17      -8.9942      2.00000
     18      -8.9621      2.00000
     19      -8.8283      2.00000
     20      -8.8060      2.00000
     21      -8.2322      2.00000
     22      -8.1332      2.00000
     23      -8.0337      2.00000
     24      -7.9961      2.00000
     25      -5.4625      2.00000
     26      -5.4422      2.00000
     27      -5.3393      2.00000
     28      -5.3140      2.00000
     29      -5.1961      2.00000
     30      -5.1492      2.00000
     31      -4.9896      2.00000
     32      -4.9336      2.00000
     33      -4.8960      2.00000
     34      -4.8354      2.00000
     35      -4.6742      2.00000
     36      -4.6518      2.00000
     37      -4.5865      2.00000
     38      -4.4628      2.00000
     39      -4.4250      2.00000
     40      -4.3943      2.00000
     41      -1.6609      2.00000
     42      -1.6389      2.00000
     43      -1.5083      2.00000
     44      -1.4997      2.00000
     45      -1.3833      2.00000
     46      -1.3374      2.00000
     47      -1.2286      2.00000
     48      -1.1854      2.00000
     49      -0.1540      2.00000
     50      -0.0288      2.00000
     51       0.0342      2.00000
     52       0.1549      2.00000
     53       4.8347      0.00000
     54       4.9260      0.00000
     55       4.9908      0.00000
     56       5.1052      0.00000
     57       5.6593      0.00000
     58       5.6959      0.00000
     59       5.7637      0.00000
     60       5.8514      0.00000
     61       6.3577      0.00000
     62       6.4168      0.00000
     63       6.8627      0.00000
     64       7.0683      0.00000
     65       7.4500      0.00000
     66       7.7647      0.00000
     67       7.8663      0.00000
     68       7.9662      0.00000
     69       8.2711      0.00000
     70       8.3687      0.00000
     71       8.9095      0.00000
     72       8.9616      0.00000
     73       9.2688      0.00000
     74       9.3979      0.00000
     75       9.4812      0.00000
     76       9.6957      0.00000
     77      10.1047      0.00000
     78      10.2785      0.00000
     79      10.3503      0.00000
     80      10.4492      0.00000
     81      10.8584      0.00000
     82      10.9689      0.00000
     83      11.0701      0.00000
     84      11.3768      0.00000
     85      11.6376      0.00000
     86      11.7559      0.00000
     87      11.8312      0.00000
     88      12.0491      0.00000
     89      12.2402      0.00000
     90      12.3111      0.00000
     91      12.5474      0.00000
     92      12.5980      0.00000
     93      12.6433      0.00000
     94      12.9261      0.00000
     95      13.3159      0.00000
     96      13.3715      0.00000
     97      13.4058      0.00000
     98      13.4812      0.00000
     99      13.8352      0.00000
    100      13.9374      0.00000
    101      14.1161      0.00000
    102      14.1904      0.00000
    103      14.2299      0.00000
    104      14.3708      0.00000
    105      14.5328      0.00000
    106      14.6542      0.00000
    107      14.9048      0.00000
    108      15.1087      0.00000
    109      15.2789      0.00000
    110      15.5406      0.00000
    111      15.6896      0.00000
    112      15.7776      0.00000
    113      16.0224      0.00000
    114      16.1787      0.00000
    115      16.2655      0.00000
    116      16.4992      0.00000
    117      16.6162      0.00000
    118      16.9179      0.00000
    119      17.0242      0.00000
    120      17.1903      0.00000
    121      17.2396      0.00000
    122      17.4724      0.00000
    123      17.7930      0.00000
    124      18.0108      0.00000
    125      18.1515      0.00000
    126      18.3909      0.00000
    127      18.5434      0.00000
    128      18.7375      0.00000


--------------------------------------------------------------------------------------------------------


 soft charge-density along one line, spin component           1
         0         1         2         3         4         5         6         7         8         9
 total charge-density along one line

 pseudopotential strength for first ion, spin component:           1
 12.524  21.072   0.008  -0.002   0.007   0.014  -0.004   0.012
 21.072  35.453   0.014  -0.004   0.011   0.024  -0.007   0.020
  0.008   0.014  -3.206   0.000  -0.000  -5.741   0.000  -0.001
 -0.002  -0.004   0.000  -3.206   0.001   0.000  -5.741   0.001
  0.007   0.011  -0.000   0.001  -3.206  -0.001   0.001  -5.741
  0.014   0.024  -5.741   0.000  -0.001 -10.259   0.000  -0.001
 -0.004  -0.007   0.000  -5.741   0.001   0.000 -10.260   0.002
  0.012   0.020  -0.001   0.001  -5.741  -0.001   0.002 -10.259
 total augmentation occupancy for first ion, spin component:           1
  6.738  -2.295   1.265   0.381   0.640  -0.600  -0.181  -0.301
 -2.295   0.859  -0.667  -0.176  -0.349   0.298   0.087   0.150
  1.265  -0.667   5.448   0.961   1.349  -1.696  -0.368  -0.535
  0.381  -0.176   0.961   6.065  -1.537  -0.368  -2.029   0.665
  0.640  -0.349   1.349  -1.537   4.408  -0.535   0.665  -1.329
 -0.600   0.298  -1.696  -0.368  -0.535   0.556   0.135   0.196
 -0.181   0.087  -0.368  -2.029   0.665   0.135   0.709  -0.263
 -0.301   0.150  -0.535   0.665  -1.329   0.196  -0.263   0.432


------------------------ aborting loop because EDIFF is reached ----------------------------------------


    FORLOC:  cpu time      0.0060: real time      0.0060
    FORNL :  cpu time      1.6814: real time      1.6821
    FORCOR:  cpu time      0.1021: real time      0.1021
    OFIELD:  cpu time      0.0024: real time      0.0026
 WARNING: Using user supplied parameters
     VDW_S8 = 1.682
     VDW_SR = 1.094
     because the xc functional is not supported. Required parameters not
     defined in the INCAR file will be replaced with PBE defaults ones.


 ---------------------------------------------------------------------------------------------

         DFTD3 V3.0 Rev 1        
 IVDW         = 11
 DF unknown   
 parameters
 VDW_S6       =    1.0000
 VDW_S8       =    1.6820
 VDW_SR       =    1.0940
 rs18     =    1.0000
 alpha6   =   14.0000
 alpha8   =   16.0000
 k1-k3    =   16.0000    1.3333   -4.0000
 VDW_RADIUS   =   50.2022 A
 VDW_CNRADIUS =   21.1671 A
 Edisp (eV)   -3.32226

 E6    (eV) :    -1.7749
 E8    (eV) :    -1.5473
 % E8        : 46.57
    FORVDW:  cpu time      0.4875: real time      0.4892

 VOLUME and BASIS-vectors are now :
 -----------------------------------------------------------------------------
  energy-cutoff  :     1000.00
  volume of cell :      348.76
      direct lattice vectors                 reciprocal lattice vectors
     7.582000000  0.000000000  0.000000000     0.131891322 -0.000000000  0.073048454
     0.000000000  5.371000000  0.000000000     0.000000000  0.186185068 -0.000000000
    -4.743300000  0.000000000  8.564180000     0.000000000  0.000000000  0.116765411

  length of vectors
     7.582000000  5.371000000  9.789998670     0.150769351  0.186185068  0.116765411


 FORCES acting on ions:
    Electron-Ion                     Ewald-Force                    Non-Local-Force
 -----------------------------------------------------------------------------------------------
   0.701E+02 0.146E+03 0.355E+02   -.741E+02 -.151E+03 -.341E+02   0.393E+01 0.457E+01 -.155E+01
   -.701E+02 -.146E+03 -.355E+02   0.741E+02 0.151E+03 0.341E+02   -.393E+01 -.457E+01 0.155E+01
   -.701E+02 0.146E+03 -.355E+02   0.741E+02 -.151E+03 0.341E+02   -.393E+01 0.457E+01 0.155E+01
   0.701E+02 -.146E+03 0.355E+02   -.741E+02 0.151E+03 -.341E+02   0.393E+01 -.457E+01 -.155E+01
   -.170E+02 -.122E+03 -.103E+03   0.202E+02 0.126E+03 0.102E+03   -.322E+01 -.348E+01 0.109E+01
   0.170E+02 0.122E+03 0.103E+03   -.202E+02 -.126E+03 -.102E+03   0.322E+01 0.348E+01 -.109E+01
   0.170E+02 -.122E+03 0.103E+03   -.202E+02 0.126E+03 -.102E+03   0.322E+01 -.348E+01 -.109E+01
   -.170E+02 0.122E+03 -.103E+03   0.202E+02 -.126E+03 0.102E+03   -.322E+01 0.348E+01 0.109E+01
   -.103E+03 -.117E+03 0.390E+02   0.104E+03 0.123E+03 -.338E+02   -.105E+01 -.640E+01 -.549E+01
   0.103E+03 0.117E+03 -.390E+02   -.104E+03 -.123E+03 0.338E+02   0.105E+01 0.640E+01 0.549E+01
   0.103E+03 -.117E+03 -.390E+02   -.104E+03 0.123E+03 0.338E+02   0.105E+01 -.640E+01 0.549E+01
   -.103E+03 0.117E+03 0.390E+02   0.104E+03 -.123E+03 -.338E+02   -.105E+01 0.640E+01 -.549E+01
   -.627E+02 0.445E+02 0.136E+03   0.648E+02 -.468E+02 -.144E+03   -.205E+01 0.220E+01 0.714E+01
   0.627E+02 -.445E+02 -.136E+03   -.648E+02 0.468E+02 0.144E+03   0.205E+01 -.220E+01 -.714E+01
   0.627E+02 0.445E+02 -.136E+03   -.648E+02 -.468E+02 0.144E+03   0.205E+01 0.220E+01 -.714E+01
   -.627E+02 -.445E+02 0.136E+03   0.648E+02 0.468E+02 -.144E+03   -.205E+01 -.220E+01 0.714E+01
   0.107E+03 0.327E+02 -.144E+03   -.126E+03 -.391E+02 0.168E+03   0.198E+02 0.650E+01 -.240E+02
   -.107E+03 -.327E+02 0.144E+03   0.126E+03 0.391E+02 -.168E+03   -.198E+02 -.650E+01 0.240E+02
   -.107E+03 0.327E+02 0.144E+03   0.126E+03 -.391E+02 -.168E+03   -.198E+02 0.650E+01 0.240E+02
   0.107E+03 -.327E+02 -.144E+03   -.126E+03 0.391E+02 0.168E+03   0.198E+02 -.650E+01 -.240E+02
   -.190E+02 0.167E+02 0.427E+02   0.214E+02 -.189E+02 -.484E+02   -.247E+01 0.222E+01 0.569E+01
   0.190E+02 -.167E+02 -.427E+02   -.214E+02 0.189E+02 0.484E+02   0.247E+01 -.222E+01 -.569E+01
   0.190E+02 0.167E+02 -.427E+02   -.214E+02 -.189E+02 0.484E+02   0.247E+01 0.222E+01 -.569E+01
   -.190E+02 -.167E+02 0.427E+02   0.214E+02 0.189E+02 -.484E+02   -.247E+01 -.222E+01 0.569E+01
   0.198E+02 0.447E+02 0.113E+02   -.225E+02 -.500E+02 -.126E+02   0.277E+01 0.541E+01 0.130E+01
   -.198E+02 -.447E+02 -.113E+02   0.225E+02 0.500E+02 0.126E+02   -.277E+01 -.541E+01 -.130E+01
   -.198E+02 0.447E+02 -.113E+02   0.225E+02 -.500E+02 0.126E+02   -.277E+01 0.541E+01 -.130E+01
   0.198E+02 -.447E+02 0.113E+02   -.225E+02 0.500E+02 -.126E+02   0.277E+01 -.541E+01 0.130E+01
   -.104E+00 -.391E+02 -.371E+02   0.296E+00 0.432E+02 0.413E+02   -.201E+00 -.422E+01 -.434E+01
   0.104E+00 0.391E+02 0.371E+02   -.296E+00 -.432E+02 -.413E+02   0.201E+00 0.422E+01 0.434E+01
   0.104E+00 -.391E+02 0.371E+02   -.296E+00 0.432E+02 -.413E+02   0.201E+00 -.422E+01 0.434E+01
   -.104E+00 0.391E+02 -.371E+02   0.296E+00 -.432E+02 0.413E+02   -.201E+00 0.422E+01 -.434E+01
   -.327E+02 -.315E+02 0.232E+02   0.367E+02 0.353E+02 -.253E+02   -.413E+01 -.391E+01 0.222E+01
   0.327E+02 0.315E+02 -.232E+02   -.367E+02 -.353E+02 0.253E+02   0.413E+01 0.391E+01 -.222E+01
   0.327E+02 -.315E+02 -.232E+02   -.367E+02 0.353E+02 0.253E+02   0.413E+01 -.391E+01 -.222E+01
   -.327E+02 0.315E+02 0.232E+02   0.367E+02 -.353E+02 -.253E+02   -.413E+01 0.391E+01 0.222E+01
 -----------------------------------------------------------------------------------------------
   -.726E-03 0.718E-03 0.303E-03   -.156E-12 -.384E-12 -.338E-12   -.355E-14 -.444E-15 -.311E-14


 POSITION                                       TOTAL-FORCE (eV/Angst)
 -----------------------------------------------------------------------------------
      0.33730      1.16812      1.53227        -0.266130     -0.492790     -0.105925
      2.50140      4.20288      7.03191         0.266130      0.492790      0.105925
      4.87305      3.85362      2.74982         0.266132     -0.492794      0.105923
     -2.03435      1.51737      5.81436        -0.266132      0.492794     -0.105923
      0.92262      2.97476      2.56311         0.092731      0.402673      0.281619
      1.91608      2.39624      6.00107        -0.092731     -0.402673     -0.281619
      4.28773      0.28926      1.71898        -0.092742      0.402665     -0.281594
     -1.44903      5.08174      6.84520         0.092742     -0.402665      0.281594
      1.63394      2.94163      1.38697         0.266788      0.352563     -0.063311
      1.20476      2.42937      7.17721        -0.266788     -0.352563      0.063311
      3.57642      0.25613      2.89512        -0.266769      0.352544      0.063302
     -0.73772      5.11487      5.66906         0.266769     -0.352544     -0.063302
      1.24795      1.78824      0.74212         0.103786     -0.131395     -0.297028
      1.59075      3.58276      7.82206        -0.103786      0.131395      0.297028
      3.96241      4.47374      3.53997        -0.103794     -0.131382      0.297032
     -1.12371      0.89726      5.02421         0.103794      0.131382     -0.297032
      0.11121      1.85961      2.64921        -0.126589     -0.084792      0.138795
      2.72749      3.51139      5.91497         0.126589      0.084792     -0.138795
      5.09914      4.54511      1.63288         0.126587     -0.084789     -0.138784
     -2.26044      0.82589      6.93130        -0.126587      0.084789      0.138784
     -3.10239      1.43136      8.39660        -0.020930      0.021493      0.060411
      5.94109      3.93964      0.16758         0.020930     -0.021493     -0.060411
      3.56944      4.11686      4.44967         0.020930      0.021492     -0.060411
     -0.73074      1.25414      4.11451        -0.020930     -0.021492      0.060411
     -0.13519      0.22445      1.28500         0.060810      0.101503      0.030667
      2.97389      5.14655      7.27918        -0.060810     -0.101503     -0.030667
      5.34554      2.90995      2.99709        -0.060811      0.101505     -0.030666
     -2.50684      2.46105      5.56709         0.060811     -0.101505      0.030666
      0.95135      3.72625      3.34276         0.010080     -0.086456     -0.094789
      1.88735      1.64475      5.22142        -0.010080      0.086456      0.094789
      4.25900      1.04075      0.93933        -0.010078     -0.086450      0.094782
     -1.42030      4.33025      7.62485         0.010078      0.086450     -0.094782
      2.36706      3.62428      0.97584        -0.089254     -0.074240      0.065523
      0.47164      1.74672      7.58834         0.089254      0.074240     -0.065523
      2.84329      0.93878      3.30625         0.089247     -0.074234     -0.065518
     -0.00459      4.43222      5.25793        -0.089247      0.074234      0.065518
 -----------------------------------------------------------------------------------
    total drift:                               -0.000726      0.000718      0.000303


--------------------------------------------------------------------------------------------------------



  FREE ENERGIE OF THE ION-ELECTRON SYSTEM (eV)
  ---------------------------------------------------
  free  energy   TOTEN  =      -226.59295034 eV

  energy  without entropy=     -226.59295034  energy(sigma->0) =     -226.59295034



--------------------------------------------------------------------------------------------------------


    POTLOK:  cpu time      0.1346: real time      0.1346


--------------------------------------------------------------------------------------------------------


 stress matrix after NEB project (eV)
     -4.48751      0.00000     -0.93942
      0.00000     -2.61548      0.00000
     -0.93942      0.00000     -3.62505
  FORCES: max atom, RMS     0.569993    0.331154
  FORCE total and by dimension    1.986923    0.492794
  Stress total and by dimension    6.471821    4.487510
     LOOP+:  cpu time    319.4406: real time    319.9073
    4ORBIT:  cpu time      0.0000: real time      0.0000

 total amount of memory used by VASP MPI-rank0   151075. kBytes
=======================================================================

   base      :      30000. kBytes
   nonl-proj :      82722. kBytes
   fftplans  :       7983. kBytes
   grid      :      11271. kBytes
   one-center:         55. kBytes
   wavefun   :      19044. kBytes

  
  
 General timing and accounting informations for this job:
 ========================================================
  
                  Total CPU time used (sec):      351.357
                            User time (sec):      349.238
                          System time (sec):        2.119
                         Elapsed time (sec):      355.299
  
                   Maximum memory used (kb):      415936.
                   Average memory used (kb):          N/A
  
                          Minor page faults:        77133
                          Major page faults:         1176
                 Voluntary context switches:         6281
