       N       E                     dE             d eps       ncg     rms          ort
DAV:   1     0.248861709458E+03    0.24886E+03   -0.16265E+04   512   0.801E+01
DAV:   2    -0.761472084372E+02   -0.32501E+03   -0.32501E+03   512   0.717E+00
DAV:   3    -0.774308062590E+02   -0.12836E+01   -0.12836E+01   512   0.124E+00
DAV:   4    -0.774363465461E+02   -0.55403E-02   -0.55403E-02   512   0.879E-02
DAV:   5    -0.774363466831E+02   -0.13698E-06   -0.16282E-06   512   0.500E-04
SDA:   6    -0.596539733052E+02    0.17782E+02   -0.16282E-06   512   0.282E+02 0.000E+00
CGA:   7    -0.659592302842E+02   -0.63053E+01   -0.63185E+01   512   0.347E+01 0.357E+00
CGA:   8    -0.674226195973E+02   -0.14634E+01   -0.14502E+01   512   0.206E+01-0.554E-01
CGA:   9    -0.680028782103E+02   -0.58026E+00   -0.59179E+00   512   0.484E+00-0.107E+00
CGA:  10    -0.681241082705E+02   -0.12123E+00   -0.12128E+00   512   0.111E+00 0.321E-03
CGA:  11    -0.681576949494E+02   -0.33587E-01   -0.33531E-01   512   0.330E-01 0.534E-03
CGA:  12    -0.681694197828E+02   -0.11725E-01   -0.11722E-01   512   0.120E-01-0.387E-04
CGA:  13    -0.681735546308E+02   -0.41348E-02   -0.41396E-02   512   0.346E-02-0.383E-04
CGA:  14    -0.681747087179E+02   -0.11541E-02   -0.11539E-02   512   0.877E-03 0.348E-05
CGA:  15    -0.681750075795E+02   -0.29886E-03   -0.29819E-03   512   0.224E-03 0.659E-05
CGA:  16    -0.681750896592E+02   -0.82080E-04   -0.81749E-04   512   0.621E-04 0.269E-05
CGA:  17    -0.681751134446E+02   -0.23785E-04   -0.23740E-04   512   0.184E-04 0.317E-06
CGA:  18    -0.681751205797E+02   -0.71351E-05   -0.71398E-05   512   0.522E-05-0.413E-07
CGA:  19    -0.681751226836E+02   -0.21039E-05   -0.21344E-05   512   0.151E-05-0.211E-06
CGA:  20    -0.681751232797E+02   -0.59614E-06   -0.61576E-06   512   0.429E-06-0.130E-06
CGA:  21    -0.681751234445E+02   -0.16476E-06   -0.16934E-06   512   0.127E-06-0.307E-07
CGA:  22    -0.681751234982E+02   -0.53770E-07   -0.58377E-07   512   0.484E-07-0.226E-07
CGA:  23    -0.681751235146E+02   -0.16379E-07   -0.16141E-07   512   0.150E-07 0.118E-08
CGA:  24    -0.681751235199E+02   -0.52787E-08   -0.51274E-08   512   0.456E-08 0.295E-08
   1 F= -.68175124E+02 E0= -.68175124E+02  d E =-.840175E-44
 Found    18 degrees of freedom:
       N       E                     dE             d eps       ncg     rms          ort
SDA:   1    -0.681460101884E+02    0.29113E-01    0.00000E+00   512   0.508E-01 0.000E+00
CGA:   2    -0.681693511606E+02   -0.23341E-01   -0.23345E-01   512   0.161E-01-0.297E-04
CGA:   3    -0.681732694576E+02   -0.39183E-02   -0.39185E-02   512   0.213E-02-0.310E-05
CGA:   4    -0.681737777632E+02   -0.50831E-03   -0.50843E-03   512   0.407E-03 0.851E-06
CGA:   5    -0.681738851583E+02   -0.10740E-03   -0.10742E-03   512   0.980E-04 0.363E-06
CGA:   6    -0.681739161991E+02   -0.31041E-04   -0.31042E-04   512   0.297E-04-0.111E-06
CGA:   7    -0.681739264797E+02   -0.10281E-04   -0.10276E-04   512   0.907E-05 0.826E-07
CGA:   8    -0.681739296842E+02   -0.32046E-05   -0.32014E-05   512   0.245E-05 0.572E-07
CGA:   9    -0.681739305967E+02   -0.91246E-06   -0.91343E-06   512   0.681E-06-0.189E-07
CGA:  10    -0.681739308652E+02   -0.26847E-06   -0.26737E-06   512   0.212E-06 0.106E-07
CGA:  11    -0.681739309619E+02   -0.96739E-07   -0.96321E-07   512   0.798E-07 0.179E-08
CGA:  12    -0.681739310003E+02   -0.38410E-07   -0.38862E-07   512   0.301E-07-0.398E-08
CGA:  13    -0.681739310121E+02   -0.11744E-07   -0.11402E-07   512   0.739E-08 0.220E-08
CGA:  14    -0.681739310158E+02   -0.37689E-08   -0.36171E-08   512   0.248E-08-0.329E-09
   2 F= -.68173931E+02 E0= -.68173931E+02  d E =-.128713E-20
       N       E                     dE             d eps       ncg     rms          ort
SDA:   1    -0.680624607859E+02    0.11147E+00    0.00000E+00   512   0.202E+00 0.000E+00
CGA:   2    -0.681555833351E+02   -0.93123E-01   -0.93151E-01   512   0.641E-01-0.217E-03
CGA:   3    -0.681712008132E+02   -0.15617E-01   -0.15615E-01   512   0.854E-02 0.325E-05
CGA:   4    -0.681732620961E+02   -0.20613E-02   -0.20615E-02   512   0.169E-02-0.132E-05
CGA:   5    -0.681737157290E+02   -0.45363E-03   -0.45367E-03   512   0.428E-03-0.437E-06
CGA:   6    -0.681738523268E+02   -0.13660E-03   -0.13661E-03   512   0.133E-03 0.379E-06
CGA:   7    -0.681738985703E+02   -0.46244E-04   -0.46242E-04   512   0.407E-04-0.455E-08
CGA:   8    -0.681739128923E+02   -0.14322E-04   -0.14322E-04   512   0.109E-04-0.327E-07
CGA:   9    -0.681739168380E+02   -0.39457E-05   -0.39435E-05   512   0.289E-05 0.612E-07
CGA:  10    -0.681739180089E+02   -0.11709E-05   -0.11704E-05   512   0.927E-06 0.274E-08
CGA:  11    -0.681739184179E+02   -0.40899E-06   -0.40771E-06   512   0.330E-06 0.913E-08
CGA:  12    -0.681739185665E+02   -0.14859E-06   -0.14714E-06   512   0.109E-06 0.116E-07
CGA:  13    -0.681739186192E+02   -0.52712E-07   -0.52695E-07   512   0.364E-07-0.283E-08
CGA:  14    -0.681739186346E+02   -0.15481E-07   -0.15128E-07   512   0.930E-08 0.812E-09
CGA:  15    -0.681739186393E+02   -0.46839E-08   -0.44041E-08   512   0.280E-08-0.367E-09
   3 F= -.68173919E+02 E0= -.68173919E+02  d E =-.185691E-11
       N       E                     dE             d eps       ncg     rms          ort
SDA:   1    -0.681170120447E+02    0.56907E-01    0.00000E+00   512   0.102E+00 0.000E+00
CGA:   2    -0.681636861245E+02   -0.46674E-01   -0.46676E-01   512   0.328E-01-0.340E-04
CGA:   3    -0.681717003567E+02   -0.80142E-02   -0.80134E-02   512   0.434E-02 0.451E-05
CGA:   4    -0.681727423020E+02   -0.10419E-02   -0.10421E-02   512   0.848E-03-0.138E-05
CGA:   5    -0.681729671768E+02   -0.22487E-03   -0.22488E-03   512   0.210E-03-0.486E-06
CGA:   6    -0.681730335874E+02   -0.66411E-04   -0.66427E-04   512   0.639E-04 0.337E-06
CGA:   7    -0.681730558422E+02   -0.22255E-04   -0.22254E-04   512   0.196E-04-0.636E-07
CGA:   8    -0.681730627491E+02   -0.69069E-05   -0.69067E-05   512   0.527E-05-0.597E-07
CGA:   9    -0.681730646386E+02   -0.18895E-05   -0.18891E-05   512   0.137E-05 0.529E-07
CGA:  10    -0.681730651992E+02   -0.56059E-06   -0.56078E-06   512   0.445E-06-0.585E-08
CGA:  11    -0.681730653928E+02   -0.19361E-06   -0.19305E-06   512   0.156E-06 0.567E-08
CGA:  12    -0.681730654615E+02   -0.68714E-07   -0.67992E-07   512   0.503E-07 0.937E-08
CGA:  13    -0.681730654870E+02   -0.25516E-07   -0.25861E-07   512   0.184E-07-0.298E-08
CGA:  14    -0.681730654940E+02   -0.69358E-08   -0.68573E-08   512   0.426E-08 0.121E-08
   4 F= -.68173065E+02 E0= -.68173065E+02  d E =-.561171E-84
       N       E                     dE             d eps       ncg     rms          ort
SDA:   1    -0.680573339560E+02    0.11573E+00    0.00000E+00   512   0.213E+00 0.000E+00
CGA:   2    -0.681515045475E+02   -0.94171E-01   -0.94186E-01   512   0.745E-01-0.184E-03
CGA:   3    -0.681700142322E+02   -0.18510E-01   -0.18522E-01   512   0.974E-02-0.112E-04
CGA:   4    -0.681723416109E+02   -0.23274E-02   -0.23281E-02   512   0.186E-02 0.229E-05
CGA:   5    -0.681728320285E+02   -0.49042E-03   -0.49067E-03   512   0.456E-03 0.138E-05
CGA:   6    -0.681729769841E+02   -0.14496E-03   -0.14495E-03   512   0.134E-03-0.517E-06
CGA:   7    -0.681730231356E+02   -0.46151E-04   -0.46158E-04   512   0.398E-04 0.342E-06
CGA:   8    -0.681730369987E+02   -0.13863E-04   -0.13866E-04   512   0.104E-04 0.265E-06
CGA:   9    -0.681730407908E+02   -0.37921E-05   -0.37923E-05   512   0.260E-05-0.813E-07
CGA:  10    -0.681730417536E+02   -0.96284E-06   -0.96226E-06   512   0.647E-06 0.315E-07
CGA:  11    -0.681730420232E+02   -0.26961E-06   -0.26926E-06   512   0.198E-06 0.534E-08
CGA:  12    -0.681730421180E+02   -0.94794E-07   -0.96326E-07   512   0.789E-07-0.158E-07
CGA:  13    -0.681730421487E+02   -0.30625E-07   -0.30276E-07   512   0.219E-07 0.520E-08
CGA:  14    -0.681730421606E+02   -0.11959E-07   -0.12325E-07   512   0.994E-08-0.297E-08
CGA:  15    -0.681730421645E+02   -0.39072E-08   -0.38577E-08   512   0.281E-08-0.664E-09
   5 F= -.68173042E+02 E0= -.68173042E+02  d E =-.247378E-11
       N       E                     dE             d eps       ncg     rms          ort
SDA:   1    -0.681162678177E+02    0.56774E-01    0.00000E+00   512   0.105E+00 0.000E+00
CGA:   2    -0.681635759480E+02   -0.47308E-01   -0.47308E-01   512   0.364E-01-0.149E-04
CGA:   3    -0.681725093374E+02   -0.89334E-02   -0.89324E-02   512   0.448E-02 0.694E-05
CGA:   4    -0.681735953680E+02   -0.10860E-02   -0.10861E-02   512   0.864E-03-0.174E-05
CGA:   5    -0.681738239419E+02   -0.22857E-03   -0.22857E-03   512   0.216E-03-0.645E-06
CGA:   6    -0.681738920224E+02   -0.68080E-04   -0.68102E-04   512   0.649E-04 0.375E-06
CGA:   7    -0.681739145479E+02   -0.22525E-04   -0.22525E-04   512   0.200E-04-0.736E-07
CGA:   8    -0.681739216259E+02   -0.70781E-05   -0.70778E-05   512   0.552E-05-0.770E-07
CGA:   9    -0.681739236138E+02   -0.19878E-05   -0.19876E-05   512   0.145E-05 0.587E-07
CGA:  10    -0.681739241980E+02   -0.58421E-06   -0.58450E-06   512   0.447E-06-0.687E-08
CGA:  11    -0.681739243873E+02   -0.18936E-06   -0.18894E-06   512   0.147E-06 0.692E-08
CGA:  12    -0.681739244518E+02   -0.64495E-07   -0.63841E-07   512   0.475E-07 0.104E-07
CGA:  13    -0.681739244767E+02   -0.24871E-07   -0.25298E-07   512   0.187E-07-0.285E-08
CGA:  14    -0.681739244835E+02   -0.68467E-08   -0.68756E-08   512   0.437E-08 0.157E-08
   6 F= -.68173924E+02 E0= -.68173924E+02  d E =-.851184E-17
       N       E                     dE             d eps       ncg     rms          ort
SDA:   1    -0.680619832771E+02    0.11194E+00    0.00000E+00   512   0.203E+00 0.000E+00
CGA:   2    -0.681553355931E+02   -0.93352E-01   -0.93377E-01   512   0.652E-01-0.236E-03
CGA:   3    -0.681712151447E+02   -0.15880E-01   -0.15880E-01   512   0.853E-02 0.237E-05
CGA:   4    -0.681732799180E+02   -0.20648E-02   -0.20652E-02   512   0.167E-02-0.581E-06
CGA:   5    -0.681737268507E+02   -0.44693E-03   -0.44703E-03   512   0.417E-03-0.372E-07
CGA:   6    -0.681738601986E+02   -0.13335E-03   -0.13336E-03   512   0.130E-03 0.506E-07
CGA:   7    -0.681739055303E+02   -0.45332E-04   -0.45334E-04   512   0.403E-04 0.917E-07
CGA:   8    -0.681739198145E+02   -0.14284E-04   -0.14284E-04   512   0.110E-04 0.437E-07
CGA:   9    -0.681739238549E+02   -0.40404E-05   -0.40401E-05   512   0.302E-05 0.107E-07
CGA:  10    -0.681739250738E+02   -0.12189E-05   -0.12182E-05   512   0.972E-06 0.125E-07
CGA:  11    -0.681739255080E+02   -0.43429E-06   -0.43369E-06   512   0.352E-06 0.526E-08
CGA:  12    -0.681739256694E+02   -0.16138E-06   -0.16108E-06   512   0.120E-06 0.161E-08
CGA:  13    -0.681739257233E+02   -0.53869E-07   -0.53689E-07   512   0.355E-07 0.129E-09
CGA:  14    -0.681739257397E+02   -0.16370E-07   -0.16351E-07   512   0.103E-07-0.161E-08
CGA:  15    -0.681739257442E+02   -0.45666E-08   -0.44779E-08   512   0.266E-08-0.520E-09
   7 F= -.68173926E+02 E0= -.68173926E+02  d E =-.421415E-16
       N       E                     dE             d eps       ncg     rms          ort
SDA:   1    -0.681205405986E+02    0.53385E-01    0.00000E+00   512   0.950E-01 0.000E+00
CGA:   2    -0.681655764623E+02   -0.45036E-01   -0.45041E-01   512   0.297E-01-0.379E-04
CGA:   3    -0.681726496314E+02   -0.70732E-02   -0.70745E-02   512   0.367E-02-0.672E-05
CGA:   4    -0.681735383896E+02   -0.88876E-03   -0.88917E-03   512   0.711E-03 0.101E-05
CGA:   5    -0.681737235499E+02   -0.18516E-03   -0.18527E-03   512   0.168E-03 0.520E-06
CGA:   6    -0.681737765180E+02   -0.52968E-04   -0.52959E-04   512   0.499E-04-0.229E-06
CGA:   7    -0.681737937145E+02   -0.17196E-04   -0.17200E-04   512   0.152E-04 0.137E-06
CGA:   8    -0.681737991077E+02   -0.53932E-05   -0.53946E-05   512   0.414E-05 0.985E-07
CGA:   9    -0.681738006536E+02   -0.15459E-05   -0.15459E-05   512   0.113E-05-0.356E-07
CGA:  10    -0.681738010840E+02   -0.43042E-06   -0.42998E-06   512   0.318E-06 0.165E-07
CGA:  11    -0.681738012231E+02   -0.13907E-06   -0.13877E-06   512   0.110E-06 0.231E-08
CGA:  12    -0.681738012768E+02   -0.53695E-07   -0.54448E-07   512   0.448E-07-0.774E-08
CGA:  13    -0.681738012939E+02   -0.17127E-07   -0.16845E-07   512   0.118E-07 0.346E-08
CGA:  14    -0.681738013001E+02   -0.62146E-08   -0.61243E-08   512   0.459E-08-0.969E-09
   8 F= -.68173801E+02 E0= -.68173801E+02  d E =-.137469E-22
       N       E                     dE             d eps       ncg     rms          ort
SDA:   1    -0.680621600327E+02    0.11164E+00    0.00000E+00   512   0.204E+00 0.000E+00
CGA:   2    -0.681549953378E+02   -0.92835E-01   -0.92846E-01   512   0.645E-01-0.144E-03
CGA:   3    -0.681709634339E+02   -0.15968E-01   -0.15957E-01   512   0.916E-02 0.138E-04
CGA:   4    -0.681731274079E+02   -0.21640E-02   -0.21641E-02   512   0.180E-02-0.333E-05
CGA:   5    -0.681736033126E+02   -0.47590E-03   -0.47590E-03   512   0.443E-03-0.126E-05
CGA:   6    -0.681737439278E+02   -0.14062E-03   -0.14066E-03   512   0.135E-03 0.729E-06
CGA:   7    -0.681737910188E+02   -0.47091E-04   -0.47090E-04   512   0.415E-04-0.135E-06
CGA:   8    -0.681738054770E+02   -0.14458E-04   -0.14456E-04   512   0.109E-04-0.157E-06
CGA:   9    -0.681738093067E+02   -0.38298E-05   -0.38313E-05   512   0.267E-05 0.119E-06
CGA:  10    -0.681738103710E+02   -0.10642E-05   -0.10645E-05   512   0.803E-06-0.104E-07
CGA:  11    -0.681738107142E+02   -0.34328E-06   -0.34298E-06   512   0.274E-06 0.470E-08
CGA:  12    -0.681738108309E+02   -0.11668E-06   -0.11566E-06   512   0.863E-07 0.202E-07
CGA:  13    -0.681738108758E+02   -0.44915E-07   -0.45657E-07   512   0.332E-07-0.584E-08
CGA:  14    -0.681738108881E+02   -0.12295E-07   -0.12266E-07   512   0.782E-08 0.187E-08
CGA:  15    -0.681738108920E+02   -0.38244E-08   -0.38587E-08   512   0.283E-08-0.673E-09
CGA:  16    -0.681738108716E+02    0.20398E-07   -0.11039E-07   512   0.690E-07-0.127E-07
CGA:  17    -0.681738108895E+02   -0.17972E-07   -0.19955E-07   512   0.654E-08 0.474E-08
CGA:  18    -0.681738108939E+02   -0.43510E-08   -0.43477E-08   512   0.237E-08-0.488E-09
   9 F= -.68173811E+02 E0= -.68173811E+02  d E =-.203987E-19
       N       E                     dE             d eps       ncg     rms          ort
SDA:   1    -0.681170002834E+02    0.56811E-01    0.00000E+00   512   0.102E+00 0.000E+00
CGA:   2    -0.681638145990E+02   -0.46814E-01   -0.46796E-01   512   0.332E-01-0.105E-04
CGA:   3    -0.681719172897E+02   -0.81027E-02   -0.81061E-02   512   0.432E-02-0.822E-05
CGA:   4    -0.681729549789E+02   -0.10377E-02   -0.10382E-02   512   0.828E-03-0.264E-06
CGA:   5    -0.681731741038E+02   -0.21912E-03   -0.21931E-03   512   0.201E-03-0.803E-07
CGA:   6    -0.681732378327E+02   -0.63729E-04   -0.63725E-04   512   0.615E-04-0.128E-06
CGA:   7    -0.681732592215E+02   -0.21389E-04   -0.21409E-04   512   0.191E-04 0.591E-07
CGA:   8    -0.681732660052E+02   -0.67837E-05   -0.67936E-05   512   0.526E-05 0.413E-07
CGA:   9    -0.681732679578E+02   -0.19525E-05   -0.19505E-05   512   0.146E-05-0.147E-07
CGA:  10    -0.681732685423E+02   -0.58451E-06   -0.58563E-06   512   0.465E-06 0.864E-08
CGA:  11    -0.681732687520E+02   -0.20971E-06   -0.20959E-06   512   0.172E-06 0.638E-09
CGA:  12    -0.681732688325E+02   -0.80538E-07   -0.80171E-07   512   0.603E-07-0.310E-08
CGA:  13    -0.681732688578E+02   -0.25288E-07   -0.25323E-07   512   0.163E-07 0.171E-08
CGA:  14    -0.681732688659E+02   -0.81154E-08   -0.78590E-08   512   0.511E-08-0.110E-08
  10 F= -.68173269E+02 E0= -.68173269E+02  d E =-.941623E-13
       N       E                     dE             d eps       ncg     rms          ort
SDA:   1    -0.680573635165E+02    0.11591E+00    0.00000E+00   512   0.211E+00 0.000E+00
CGA:   2    -0.681525616786E+02   -0.95198E-01   -0.95186E-01   512   0.739E-01-0.991E-04
CGA:   3    -0.681705559398E+02   -0.17994E-01   -0.18001E-01   512   0.850E-02-0.826E-05
CGA:   4    -0.681726567290E+02   -0.21008E-02   -0.21013E-02   512   0.162E-02 0.210E-06
CGA:   5    -0.681730970087E+02   -0.44028E-03   -0.44051E-03   512   0.410E-03-0.362E-07
CGA:   6    -0.681732290975E+02   -0.13209E-03   -0.13211E-03   512   0.128E-03-0.114E-06
CGA:   7    -0.681732737410E+02   -0.44644E-04   -0.44668E-04   512   0.403E-04 0.141E-06
CGA:   8    -0.681732883699E+02   -0.14629E-04   -0.14638E-04   512   0.118E-04 0.763E-07
CGA:   9    -0.681732928668E+02   -0.44969E-05   -0.44955E-05   512   0.347E-05-0.194E-07
CGA:  10    -0.681732942728E+02   -0.14060E-05   -0.14068E-05   512   0.109E-05 0.148E-07
CGA:  11    -0.681732947546E+02   -0.48174E-06   -0.48168E-06   512   0.375E-06-0.313E-08
CGA:  12    -0.681732949238E+02   -0.16920E-06   -0.16914E-06   512   0.122E-06-0.484E-08
CGA:  13    -0.681732949766E+02   -0.52879E-07   -0.52830E-07   512   0.337E-07 0.911E-09
CGA:  14    -0.681732949927E+02   -0.16043E-07   -0.16055E-07   512   0.101E-07-0.252E-08
CGA:  15    -0.681732949966E+02   -0.38926E-08   -0.38384E-08   512   0.219E-08 0.251E-09
  11 F= -.68173295E+02 E0= -.68173295E+02  d E =-.302250E-13
       N       E                     dE             d eps       ncg     rms          ort
SDA:   1    -0.681161374091E+02    0.57158E-01    0.00000E+00   512   0.105E+00 0.000E+00
CGA:   2    -0.681636377178E+02   -0.47500E-01   -0.47501E-01   512   0.364E-01-0.418E-04
CGA:   3    -0.681724663810E+02   -0.88287E-02   -0.88299E-02   512   0.421E-02-0.406E-05
CGA:   4    -0.681735036459E+02   -0.10373E-02   -0.10376E-02   512   0.801E-03 0.100E-06
CGA:   5    -0.681737208159E+02   -0.21717E-03   -0.21726E-03   512   0.201E-03 0.122E-06
CGA:   6    -0.681737855599E+02   -0.64744E-04   -0.64747E-04   512   0.624E-04-0.570E-07
CGA:   7    -0.681738073117E+02   -0.21752E-04   -0.21759E-04   512   0.195E-04 0.929E-07
CGA:   8    -0.681738143648E+02   -0.70531E-05   -0.70553E-05   512   0.565E-05 0.456E-07
CGA:   9    -0.681738165121E+02   -0.21474E-05   -0.21467E-05   512   0.166E-05-0.960E-08
CGA:  10    -0.681738171881E+02   -0.67595E-06   -0.67552E-06   512   0.529E-06 0.998E-08
CGA:  11    -0.681738174234E+02   -0.23528E-06   -0.23481E-06   512   0.183E-06-0.600E-09
CGA:  12    -0.681738175056E+02   -0.82235E-07   -0.81826E-07   512   0.587E-07-0.129E-08
CGA:  13    -0.681738175310E+02   -0.25425E-07   -0.24926E-07   512   0.158E-07 0.141E-08
CGA:  14    -0.681738175387E+02   -0.76570E-08   -0.71924E-08   512   0.430E-08-0.179E-09
  12 F= -.68173818E+02 E0= -.68173818E+02  d E =-.578014E-18
       N       E                     dE             d eps       ncg     rms          ort
SDA:   1    -0.680620500741E+02    0.11177E+00    0.00000E+00   512   0.204E+00 0.000E+00
CGA:   2    -0.681549309057E+02   -0.92881E-01   -0.92887E-01   512   0.651E-01-0.130E-03
CGA:   3    -0.681709879359E+02   -0.16057E-01   -0.16047E-01   512   0.902E-02 0.190E-04
CGA:   4    -0.681731351033E+02   -0.21472E-02   -0.21473E-02   512   0.178E-02-0.299E-05
CGA:   5    -0.681736066548E+02   -0.47155E-03   -0.47157E-03   512   0.441E-03-0.106E-05
CGA:   6    -0.681737470668E+02   -0.14041E-03   -0.14047E-03   512   0.135E-03 0.598E-06
CGA:   7    -0.681737943027E+02   -0.47236E-04   -0.47234E-04   512   0.416E-04-0.113E-06
CGA:   8    -0.681738088238E+02   -0.14521E-04   -0.14518E-04   512   0.109E-04-0.116E-06
CGA:   9    -0.681738127016E+02   -0.38779E-05   -0.38806E-05   512   0.274E-05 0.993E-07
CGA:  10    -0.681738137992E+02   -0.10976E-05   -0.10978E-05   512   0.839E-06-0.994E-08
CGA:  11    -0.681738141607E+02   -0.36146E-06   -0.36104E-06   512   0.289E-06 0.734E-08
CGA:  12    -0.681738142872E+02   -0.12652E-06   -0.12571E-06   512   0.945E-07 0.173E-07
CGA:  13    -0.681738143359E+02   -0.48667E-07   -0.49288E-07   512   0.360E-07-0.569E-08
CGA:  14    -0.681738143497E+02   -0.13805E-07   -0.13805E-07   512   0.874E-08 0.188E-08
CGA:  15    -0.681738143542E+02   -0.45275E-08   -0.47000E-08   512   0.363E-08-0.143E-08
  13 F= -.68173814E+02 E0= -.68173814E+02  d E =-.680056E-16
       N       E                     dE             d eps       ncg     rms          ort
SDA:   1    -0.681178651489E+02    0.55949E-01    0.00000E+00   512   0.103E+00 0.000E+00
CGA:   2    -0.681639362480E+02   -0.46071E-01   -0.46073E-01   512   0.346E-01-0.350E-04
CGA:   3    -0.681724990347E+02   -0.85628E-02   -0.85650E-02   512   0.452E-02-0.843E-05
CGA:   4    -0.681735890036E+02   -0.10900E-02   -0.10906E-02   512   0.867E-03 0.119E-05
CGA:   5    -0.681738134470E+02   -0.22444E-03   -0.22462E-03   512   0.204E-03 0.602E-06
CGA:   6    -0.681738776236E+02   -0.64177E-04   -0.64158E-04   512   0.603E-04-0.317E-06
CGA:   7    -0.681738985159E+02   -0.20892E-04   -0.20903E-04   512   0.183E-04 0.172E-06
CGA:   8    -0.681739049316E+02   -0.64157E-05   -0.64216E-05   512   0.479E-05 0.119E-06
CGA:   9    -0.681739066776E+02   -0.17459E-05   -0.17445E-05   512   0.121E-05-0.460E-07
CGA:  10    -0.681739071280E+02   -0.45040E-06   -0.45063E-06   512   0.319E-06 0.186E-07
CGA:  11    -0.681739072680E+02   -0.14007E-06   -0.13995E-06   512   0.111E-06 0.178E-09
CGA:  12    -0.681739073229E+02   -0.54828E-07   -0.55732E-07   512   0.469E-07-0.100E-07
CGA:  13    -0.681739073400E+02   -0.17145E-07   -0.17023E-07   512   0.122E-07 0.385E-08
CGA:  14    -0.681739073464E+02   -0.64083E-08   -0.63414E-08   512   0.486E-08-0.114E-08
  14 F= -.68173907E+02 E0= -.68173907E+02  d E =-.124725E-15
       N       E                     dE             d eps       ncg     rms          ort
SDA:   1    -0.680623067639E+02    0.11160E+00    0.00000E+00   512   0.203E+00 0.000E+00
CGA:   2    -0.681552893329E+02   -0.92983E-01   -0.92992E-01   512   0.646E-01-0.153E-03
CGA:   3    -0.681711249717E+02   -0.15836E-01   -0.15831E-01   512   0.873E-02 0.124E-04
CGA:   4    -0.681732243464E+02   -0.20994E-02   -0.20997E-02   512   0.173E-02-0.226E-05
CGA:   5    -0.681736873469E+02   -0.46300E-03   -0.46306E-03   512   0.436E-03-0.710E-06
CGA:   6    -0.681738264373E+02   -0.13909E-03   -0.13913E-03   512   0.135E-03 0.425E-06
CGA:   7    -0.681738735256E+02   -0.47088E-04   -0.47088E-04   512   0.415E-04-0.583E-07
CGA:   8    -0.681738880596E+02   -0.14534E-04   -0.14533E-04   512   0.110E-04-0.615E-07
CGA:   9    -0.681738920160E+02   -0.39563E-05   -0.39579E-05   512   0.287E-05 0.733E-07
CGA:  10    -0.681738931759E+02   -0.11599E-05   -0.11600E-05   512   0.910E-06-0.521E-08
CGA:  11    -0.681738935742E+02   -0.39827E-06   -0.39781E-06   512   0.323E-06 0.803E-08
CGA:  12    -0.681738937182E+02   -0.14404E-06   -0.14337E-06   512   0.107E-06 0.125E-07
CGA:  13    -0.681738937709E+02   -0.52693E-07   -0.53114E-07   512   0.375E-07-0.475E-08
CGA:  14    -0.681738937861E+02   -0.15170E-07   -0.15147E-07   512   0.936E-08 0.935E-09
CGA:  15    -0.681738937909E+02   -0.47967E-08   -0.51237E-08   512   0.396E-08-0.194E-08
  15 F= -.68173894E+02 E0= -.68173894E+02  d E =-.353613E-14
       N       E                     dE             d eps       ncg     rms          ort
SDA:   1    -0.681169030062E+02    0.56991E-01    0.00000E+00   512   0.103E+00 0.000E+00
CGA:   2    -0.681634610687E+02   -0.46558E-01   -0.46563E-01   512   0.336E-01-0.817E-04
CGA:   3    -0.681717860164E+02   -0.83249E-02   -0.83293E-02   512   0.466E-02-0.118E-04
CGA:   4    -0.681728823319E+02   -0.10963E-02   -0.10969E-02   512   0.880E-03 0.124E-05
CGA:   5    -0.681731118240E+02   -0.22949E-03   -0.22966E-03   512   0.206E-03 0.740E-06
CGA:   6    -0.681731767601E+02   -0.64936E-04   -0.64914E-04   512   0.607E-04-0.406E-06
CGA:   7    -0.681731976323E+02   -0.20872E-04   -0.20881E-04   512   0.182E-04 0.184E-06
CGA:   8    -0.681732039322E+02   -0.62999E-05   -0.63057E-05   512   0.467E-05 0.147E-06
CGA:   9    -0.681732056275E+02   -0.16953E-05   -0.16939E-05   512   0.114E-05-0.574E-07
CGA:  10    -0.681732060445E+02   -0.41701E-06   -0.41711E-06   512   0.285E-06 0.227E-07
CGA:  11    -0.681732061664E+02   -0.12185E-06   -0.12148E-06   512   0.945E-07 0.436E-08
CGA:  12    -0.681732062146E+02   -0.48252E-07   -0.49690E-07   512   0.439E-07-0.122E-07
CGA:  13    -0.681732062292E+02   -0.14586E-07   -0.14447E-07   512   0.117E-07 0.489E-08
CGA:  14    -0.681732062349E+02   -0.57080E-08   -0.54931E-08   512   0.452E-08 0.342E-10
  16 F= -.68173206E+02 E0= -.68173206E+02  d E =-.197524E-14
       N       E                     dE             d eps       ncg     rms          ort
SDA:   1    -0.680575006644E+02    0.11571E+00    0.00000E+00   512   0.210E+00 0.000E+00
CGA:   2    -0.681522918919E+02   -0.94791E-01   -0.94792E-01   512   0.736E-01-0.533E-04
CGA:   3    -0.681703392612E+02   -0.18047E-01   -0.18043E-01   512   0.888E-02 0.163E-04
CGA:   4    -0.681725102607E+02   -0.21710E-02   -0.21713E-02   512   0.172E-02-0.252E-05
CGA:   5    -0.681729720507E+02   -0.46179E-03   -0.46182E-03   512   0.439E-03-0.893E-06
CGA:   6    -0.681731118714E+02   -0.13982E-03   -0.13986E-03   512   0.134E-03 0.482E-06
CGA:   7    -0.681731583613E+02   -0.46490E-04   -0.46490E-04   512   0.413E-04-0.583E-07
CGA:   8    -0.681731729860E+02   -0.14625E-04   -0.14623E-04   512   0.114E-04-0.787E-07
CGA:   9    -0.681731771480E+02   -0.41621E-05   -0.41629E-05   512   0.304E-05 0.778E-07
CGA:  10    -0.681731783724E+02   -0.12244E-05   -0.12244E-05   512   0.935E-06-0.851E-08
CGA:  11    -0.681731787700E+02   -0.39762E-06   -0.39678E-06   512   0.309E-06 0.123E-07
CGA:  12    -0.681731789076E+02   -0.13758E-06   -0.13667E-06   512   0.101E-06 0.133E-07
CGA:  13    -0.681731789580E+02   -0.50361E-07   -0.50604E-07   512   0.358E-07-0.378E-08
CGA:  14    -0.681731789722E+02   -0.14204E-07   -0.14070E-07   512   0.858E-08 0.217E-08
CGA:  15    -0.681731789769E+02   -0.47394E-08   -0.50104E-08   512   0.410E-08-0.207E-08
  17 F= -.68173179E+02 E0= -.68173179E+02  d E =-.128412E-12
       N       E                     dE             d eps       ncg     rms          ort
SDA:   1    -0.681160588327E+02    0.57120E-01    0.00000E+00   512   0.106E+00 0.000E+00
CGA:   2    -0.681632187217E+02   -0.47160E-01   -0.47163E-01   512   0.367E-01-0.540E-04
CGA:   3    -0.681723260653E+02   -0.91073E-02   -0.91119E-02   512   0.481E-02-0.131E-04
CGA:   4    -0.681734718252E+02   -0.11458E-02   -0.11463E-02   512   0.910E-03 0.149E-05
CGA:   5    -0.681737101558E+02   -0.23833E-03   -0.23852E-03   512   0.219E-03 0.885E-06
CGA:   6    -0.681737795846E+02   -0.69429E-04   -0.69412E-04   512   0.643E-04-0.373E-06
CGA:   7    -0.681738017032E+02   -0.22119E-04   -0.22127E-04   512   0.192E-04 0.195E-06
CGA:   8    -0.681738084005E+02   -0.66973E-05   -0.67032E-05   512   0.508E-05 0.162E-06
CGA:   9    -0.681738102671E+02   -0.18666E-05   -0.18659E-05   512   0.130E-05-0.570E-07
CGA:  10    -0.681738107466E+02   -0.47948E-06   -0.47971E-06   512   0.329E-06 0.197E-07
CGA:  11    -0.681738108866E+02   -0.14003E-06   -0.14012E-06   512   0.107E-06 0.154E-08
CGA:  12    -0.681738109396E+02   -0.53052E-07   -0.55061E-07   512   0.484E-07-0.141E-07
CGA:  13    -0.681738109562E+02   -0.16516E-07   -0.16624E-07   512   0.129E-07 0.371E-08
CGA:  14    -0.681738109628E+02   -0.66057E-08   -0.70134E-08   512   0.617E-08-0.201E-08
  18 F= -.68173811E+02 E0= -.68173811E+02  d E =-.127068E-17
       N       E                     dE             d eps       ncg     rms          ort
SDA:   1    -0.680620606193E+02    0.11175E+00    0.00000E+00   512   0.204E+00 0.000E+00
CGA:   2    -0.681549689246E+02   -0.92908E-01   -0.92916E-01   512   0.649E-01-0.135E-03
CGA:   3    -0.681709833524E+02   -0.16014E-01   -0.16005E-01   512   0.903E-02 0.166E-04
CGA:   4    -0.681731305768E+02   -0.21472E-02   -0.21474E-02   512   0.178E-02-0.303E-05
CGA:   5    -0.681736024382E+02   -0.47186E-03   -0.47188E-03   512   0.441E-03-0.110E-05
CGA:   6    -0.681737429921E+02   -0.14055E-03   -0.14061E-03   512   0.135E-03 0.635E-06
CGA:   7    -0.681737902274E+02   -0.47235E-04   -0.47233E-04   512   0.415E-04-0.117E-06
CGA:   8    -0.681738047225E+02   -0.14495E-04   -0.14491E-04   512   0.110E-04-0.118E-06
CGA:   9    -0.681738085944E+02   -0.38719E-05   -0.38740E-05   512   0.274E-05 0.105E-06
CGA:  10    -0.681738096918E+02   -0.10975E-05   -0.10975E-05   512   0.836E-06-0.948E-08
CGA:  11    -0.681738100522E+02   -0.36035E-06   -0.35957E-06   512   0.288E-06 0.787E-08
CGA:  12    -0.681738101780E+02   -0.12583E-06   -0.12468E-06   512   0.937E-07 0.184E-07
CGA:  13    -0.681738102266E+02   -0.48542E-07   -0.48812E-07   512   0.355E-07-0.496E-08
CGA:  14    -0.681738102403E+02   -0.13780E-07   -0.13510E-07   512   0.856E-08 0.241E-08
CGA:  15    -0.681738102448E+02   -0.44829E-08   -0.42755E-08   512   0.304E-08-0.498E-09
  19 F= -.68173810E+02 E0= -.68173810E+02  d E =-.352277E-15
       N       E                     dE             d eps       ncg     rms          ort
SDA:   1    -0.681438284724E+02    0.29982E-01    0.00000E+00   512   0.572E-01 0.000E+00
CGA:   2    -0.681697712285E+02   -0.25943E-01   -0.25944E-01   512   0.179E-01-0.232E-04
CGA:   3    -0.681741534361E+02   -0.43822E-02   -0.43834E-02   512   0.248E-02-0.810E-05
CGA:   4    -0.681747420536E+02   -0.58862E-03   -0.58898E-03   512   0.468E-03 0.806E-06
CGA:   5    -0.681748646204E+02   -0.12257E-03   -0.12267E-03   512   0.108E-03 0.466E-06
CGA:   6    -0.681748986135E+02   -0.33993E-04   -0.33976E-04   512   0.316E-04-0.263E-06
CGA:   7    -0.681749095094E+02   -0.10896E-04   -0.10902E-04   512   0.955E-05 0.118E-06
CGA:   8    -0.681749128678E+02   -0.33583E-05   -0.33614E-05   512   0.253E-05 0.840E-07
CGA:   9    -0.681749138048E+02   -0.93707E-06   -0.93633E-06   512   0.658E-06-0.402E-07
CGA:  10    -0.681749140491E+02   -0.24424E-06   -0.24426E-06   512   0.177E-06 0.152E-07
CGA:  11    -0.681749141289E+02   -0.79796E-07   -0.79714E-07   512   0.656E-07 0.232E-09
CGA:  12    -0.681749141621E+02   -0.33236E-07   -0.34353E-07   512   0.301E-07-0.855E-08
CGA:  13    -0.681749141718E+02   -0.96570E-08   -0.96595E-08   512   0.756E-08 0.336E-08
  20 F= -.68174914E+02 E0= -.68174914E+02  d E =-.222463E-19
       N       E                     dE             d eps       ncg     rms          ort
SDA:   1    -0.681626937433E+02    0.12220E-01    0.00000E+00   512   0.236E-01 0.000E+00
CGA:   2    -0.681732837024E+02   -0.10590E-01   -0.10590E-01   512   0.573E-02-0.376E-05
CGA:   3    -0.681746772402E+02   -0.13935E-02   -0.13937E-02   512   0.776E-03 0.489E-06
CGA:   4    -0.681748690926E+02   -0.19185E-03   -0.19190E-03   512   0.139E-03-0.111E-06
CGA:   5    -0.681749050655E+02   -0.35973E-04   -0.35982E-04   512   0.270E-04 0.259E-08
CGA:   6    -0.681749132131E+02   -0.81475E-05   -0.81496E-05   512   0.709E-05 0.178E-07
CGA:   7    -0.681749157397E+02   -0.25266E-05   -0.25264E-05   512   0.244E-05-0.121E-07
CGA:   8    -0.681749166745E+02   -0.93483E-06   -0.93461E-06   512   0.795E-06 0.398E-08
CGA:   9    -0.681749169773E+02   -0.30278E-06   -0.30259E-06   512   0.219E-06 0.816E-08
CGA:  10    -0.681749170655E+02   -0.88226E-07   -0.88107E-07   512   0.658E-07 0.522E-09
CGA:  11    -0.681749170943E+02   -0.28765E-07   -0.28494E-07   512   0.230E-07 0.179E-08
CGA:  12    -0.681749171053E+02   -0.10975E-07   -0.10779E-07   512   0.794E-08 0.918E-09
CGA:  13    -0.681749171091E+02   -0.38399E-08   -0.36933E-08   512   0.220E-08 0.335E-10
  21 F= -.68174917E+02 E0= -.68174917E+02  d E =-.603710E-19
       N       E                     dE             d eps       ncg     rms          ort
SDA:   1    -0.681680310512E+02    0.68861E-02    0.00000E+00   512   0.117E-01 0.000E+00
CGA:   2    -0.681733009837E+02   -0.52699E-02   -0.52700E-02   512   0.295E-02-0.207E-05
CGA:   3    -0.681740125915E+02   -0.71161E-03   -0.71180E-03   512   0.399E-03 0.111E-05
CGA:   4    -0.681741110170E+02   -0.98425E-04   -0.98445E-04   512   0.718E-04-0.692E-07
CGA:   5    -0.681741297605E+02   -0.18743E-04   -0.18748E-04   512   0.144E-04 0.606E-08
CGA:   6    -0.681741341372E+02   -0.43767E-05   -0.43784E-05   512   0.389E-05 0.224E-07
CGA:   7    -0.681741355281E+02   -0.13909E-05   -0.13907E-05   512   0.133E-05-0.117E-07
CGA:   8    -0.681741360286E+02   -0.50044E-06   -0.50022E-06   512   0.411E-06 0.348E-08
CGA:   9    -0.681741361810E+02   -0.15245E-06   -0.15228E-06   512   0.107E-06 0.916E-08
CGA:  10    -0.681741362245E+02   -0.43467E-07   -0.43292E-07   512   0.322E-07 0.892E-09
CGA:  11    -0.681741362383E+02   -0.13843E-07   -0.13616E-07   512   0.109E-07 0.159E-08
CGA:  12    -0.681741362435E+02   -0.51778E-08   -0.49636E-08   512   0.369E-08 0.107E-08
  22 F= -.68174136E+02 E0= -.68174136E+02  d E =-.924254E-19
       N       E                     dE             d eps       ncg     rms          ort
SDA:   1    -0.681623448574E+02    0.11791E-01    0.00000E+00   512   0.227E-01 0.000E+00
CGA:   2    -0.681722661185E+02   -0.99213E-02   -0.99209E-02   512   0.671E-02 0.336E-05
CGA:   3    -0.681738831155E+02   -0.16170E-02   -0.16173E-02   512   0.896E-03-0.539E-05
CGA:   4    -0.681741011774E+02   -0.21806E-03   -0.21809E-03   512   0.161E-03-0.176E-06
CGA:   5    -0.681741446208E+02   -0.43443E-04   -0.43452E-04   512   0.370E-04-0.213E-08
CGA:   6    -0.681741563668E+02   -0.11746E-04   -0.11744E-04   512   0.112E-04-0.576E-07
CGA:   7    -0.681741602862E+02   -0.39194E-05   -0.39196E-05   512   0.352E-05 0.328E-07
CGA:   8    -0.681741615435E+02   -0.12574E-05   -0.12573E-05   512   0.931E-06 0.483E-08
CGA:   9    -0.681741618789E+02   -0.33537E-06   -0.33526E-06   512   0.224E-06-0.225E-07
CGA:  10    -0.681741619590E+02   -0.80066E-07   -0.79964E-07   512   0.541E-07-0.308E-08
CGA:  11    -0.681741619813E+02   -0.22308E-07   -0.22230E-07   512   0.168E-07-0.192E-08
CGA:  12    -0.681741619890E+02   -0.77698E-08   -0.78284E-08   512   0.632E-08-0.198E-08
  23 F= -.68174162E+02 E0= -.68174162E+02  d E =-.311501E-19
       N       E                     dE             d eps       ncg     rms          ort
SDA:   1    -0.681690062228E+02    0.51558E-02    0.00000E+00   512   0.115E-01 0.000E+00
CGA:   2    -0.681740878076E+02   -0.50816E-02   -0.50817E-02   512   0.321E-02-0.286E-05
CGA:   3    -0.681748605975E+02   -0.77279E-03   -0.77300E-03   512   0.421E-03 0.168E-05
CGA:   4    -0.681749638312E+02   -0.10323E-03   -0.10326E-03   512   0.764E-04-0.192E-07
CGA:   5    -0.681749841415E+02   -0.20310E-04   -0.20314E-04   512   0.162E-04 0.821E-08
CGA:   6    -0.681749891584E+02   -0.50169E-05   -0.50182E-05   512   0.460E-05 0.258E-07
CGA:   7    -0.681749908125E+02   -0.16542E-05   -0.16541E-05   512   0.156E-05-0.172E-07
CGA:   8    -0.681749913955E+02   -0.58296E-06   -0.58269E-06   512   0.466E-06 0.376E-08
CGA:   9    -0.681749915658E+02   -0.17036E-06   -0.17013E-06   512   0.120E-06 0.130E-07
CGA:  10    -0.681749916147E+02   -0.48876E-07   -0.48600E-07   512   0.369E-07 0.212E-08
CGA:  11    -0.681749916307E+02   -0.15966E-07   -0.15626E-07   512   0.124E-07 0.221E-08
CGA:  12    -0.681749916365E+02   -0.58444E-08   -0.55542E-08   512   0.407E-08 0.146E-08
  24 F= -.68174992E+02 E0= -.68174992E+02  d E =-.506811E-19
       N       E                     dE             d eps       ncg     rms          ort
SDA:   1    -0.681627209774E+02    0.12271E-01    0.00000E+00   512   0.238E-01 0.000E+00
CGA:   2    -0.681733363133E+02   -0.10615E-01   -0.10615E-01   512   0.580E-02-0.270E-07
CGA:   3    -0.681747508447E+02   -0.14145E-02   -0.14148E-02   512   0.778E-03-0.893E-06
CGA:   4    -0.681749437128E+02   -0.19287E-03   -0.19291E-03   512   0.139E-03 0.894E-08
CGA:   5    -0.681749794890E+02   -0.35776E-04   -0.35781E-04   512   0.265E-04-0.678E-08
CGA:   6    -0.681749874590E+02   -0.79700E-05   -0.79702E-05   512   0.686E-05-0.591E-08
CGA:   7    -0.681749899099E+02   -0.24508E-05   -0.24507E-05   512   0.239E-05 0.516E-10
CGA:   8    -0.681749908483E+02   -0.93843E-06   -0.93827E-06   512   0.818E-06-0.103E-08
CGA:   9    -0.681749911662E+02   -0.31788E-06   -0.31774E-06   512   0.234E-06-0.304E-09
CGA:  10    -0.681749912594E+02   -0.93288E-07   -0.93123E-07   512   0.694E-07 0.929E-09
CGA:  11    -0.681749912905E+02   -0.31037E-07   -0.30867E-07   512   0.250E-07 0.646E-09
CGA:  12    -0.681749913022E+02   -0.11753E-07   -0.11565E-07   512   0.827E-08 0.534E-09
CGA:  13    -0.681749913059E+02   -0.36525E-08   -0.35118E-08   512   0.198E-08 0.464E-09
  25 F= -.68174991E+02 E0= -.68174991E+02  d E =-.498152E-19
       N       E                     dE             d eps       ncg     rms          ort
SDA:   1    -0.681684865391E+02    0.65048E-02    0.00000E+00   512   0.117E-01 0.000E+00
CGA:   2    -0.681737384042E+02   -0.52519E-02   -0.52516E-02   512   0.282E-02 0.172E-05
CGA:   3    -0.681744268573E+02   -0.68845E-03   -0.68843E-03   512   0.391E-03-0.196E-05
CGA:   4    -0.681745220988E+02   -0.95242E-04   -0.95273E-04   512   0.703E-04 0.101E-06
CGA:   5    -0.681745404131E+02   -0.18314E-04   -0.18317E-04   512   0.141E-04-0.402E-08
CGA:   6    -0.681745446964E+02   -0.42833E-05   -0.42816E-05   512   0.387E-05-0.343E-07
CGA:   7    -0.681745460468E+02   -0.13504E-05   -0.13504E-05   512   0.128E-05 0.152E-07
CGA:   8    -0.681745465332E+02   -0.48640E-06   -0.48637E-06   512   0.394E-06-0.389E-08
CGA:   9    -0.681745466809E+02   -0.14767E-06   -0.14773E-06   512   0.102E-06-0.988E-08
CGA:  10    -0.681745467177E+02   -0.36791E-07   -0.36640E-07   512   0.252E-07 0.915E-09
CGA:  11    -0.681745467290E+02   -0.11339E-07   -0.11258E-07   512   0.950E-08-0.705E-09
CGA:  12    -0.681745467335E+02   -0.45138E-08   -0.43576E-08   512   0.351E-08-0.126E-09
  26 F= -.68174547E+02 E0= -.68174547E+02  d E =-.326929E-19
       N       E                     dE             d eps       ncg     rms          ort
SDA:   1    -0.681625433713E+02    0.12003E-01    0.00000E+00   512   0.228E-01 0.000E+00
CGA:   2    -0.681729215130E+02   -0.10378E-01   -0.10379E-01   512   0.575E-02-0.881E-05
CGA:   3    -0.681742941528E+02   -0.13726E-02   -0.13728E-02   512   0.797E-03 0.271E-05
CGA:   4    -0.681744888783E+02   -0.19473E-03   -0.19476E-03   512   0.143E-03-0.169E-06
CGA:   5    -0.681745266644E+02   -0.37786E-04   -0.37791E-04   512   0.304E-04-0.237E-07
CGA:   6    -0.681745359170E+02   -0.92526E-05   -0.92559E-05   512   0.839E-05 0.592E-07
CGA:   7    -0.681745388635E+02   -0.29465E-05   -0.29464E-05   512   0.267E-05-0.269E-07
CGA:   8    -0.681745398252E+02   -0.96167E-06   -0.96143E-06   512   0.732E-06 0.353E-08
CGA:   9    -0.681745400807E+02   -0.25557E-06   -0.25553E-06   512   0.164E-06 0.189E-07
CGA:  10    -0.681745401423E+02   -0.61549E-07   -0.61371E-07   512   0.391E-07 0.240E-08
CGA:  11    -0.681745401572E+02   -0.14909E-07   -0.14684E-07   512   0.100E-07 0.271E-08
CGA:  12    -0.681745401613E+02   -0.41009E-08   -0.39628E-08   512   0.299E-08 0.181E-08
  27 F= -.68174540E+02 E0= -.68174540E+02  d E =-.158703E-18
       N       E                     dE             d eps       ncg     rms          ort
SDA:   1    -0.681687235135E+02    0.58166E-02    0.00000E+00   512   0.119E-01 0.000E+00
CGA:   2    -0.681740202336E+02   -0.52967E-02   -0.52965E-02   512   0.297E-02 0.140E-05
CGA:   3    -0.681747414134E+02   -0.72118E-03   -0.72128E-03   512   0.402E-03-0.134E-05
CGA:   4    -0.681748404464E+02   -0.99033E-04   -0.99056E-04   512   0.719E-04 0.640E-07
CGA:   5    -0.681748591049E+02   -0.18658E-04   -0.18660E-04   512   0.140E-04-0.604E-08
CGA:   6    -0.681748633595E+02   -0.42546E-05   -0.42538E-05   512   0.374E-05-0.221E-07
CGA:   7    -0.681748646865E+02   -0.13270E-05   -0.13267E-05   512   0.129E-05 0.944E-08
CGA:   8    -0.681748651898E+02   -0.50332E-06   -0.50334E-06   512   0.432E-06-0.326E-08
CGA:   9    -0.681748653571E+02   -0.16732E-06   -0.16749E-06   512   0.123E-06-0.626E-08
CGA:  10    -0.681748654046E+02   -0.47480E-07   -0.47304E-07   512   0.351E-07 0.108E-08
CGA:  11    -0.681748654207E+02   -0.16095E-07   -0.15992E-07   512   0.133E-07-0.329E-09
CGA:  12    -0.681748654268E+02   -0.61382E-08   -0.60875E-08   512   0.445E-08-0.928E-11
  28 F= -.68174865E+02 E0= -.68174865E+02  d E =-.721962E-19
       N       E                     dE             d eps       ncg     rms          ort
SDA:   1    -0.681626522081E+02    0.12213E-01    0.00000E+00   512   0.239E-01 0.000E+00
CGA:   2    -0.681729960741E+02   -0.10344E-01   -0.10343E-01   512   0.657E-02 0.258E-05
CGA:   3    -0.681745975762E+02   -0.16015E-02   -0.16018E-02   512   0.855E-03-0.205E-05
CGA:   4    -0.681748084404E+02   -0.21086E-03   -0.21091E-03   512   0.154E-03 0.267E-07
CGA:   5    -0.681748488469E+02   -0.40406E-04   -0.40410E-04   512   0.307E-04-0.273E-07
CGA:   6    -0.681748582998E+02   -0.94530E-05   -0.94523E-05   512   0.848E-05-0.256E-07
CGA:   7    -0.681748613956E+02   -0.30957E-05   -0.30953E-05   512   0.310E-05 0.124E-07
CGA:   8    -0.681748626255E+02   -0.12300E-05   -0.12300E-05   512   0.107E-05-0.553E-08
CGA:   9    -0.681748630419E+02   -0.41630E-06   -0.41656E-06   512   0.310E-06-0.840E-08
CGA:  10    -0.681748631649E+02   -0.12306E-06   -0.12286E-06   512   0.932E-07 0.138E-08
CGA:  11    -0.681748632070E+02   -0.42073E-07   -0.41940E-07   512   0.335E-07-0.113E-09
CGA:  12    -0.681748632221E+02   -0.15113E-07   -0.14987E-07   512   0.102E-07 0.330E-09
CGA:  13    -0.681748632264E+02   -0.42555E-08   -0.40838E-08   512   0.223E-08 0.752E-09
  29 F= -.68174863E+02 E0= -.68174863E+02  d E =-.836527E-19
       N       E                     dE             d eps       ncg     rms          ort
SDA:   1    -0.681685519119E+02    0.63113E-02    0.00000E+00   512   0.119E-01 0.000E+00
CGA:   2    -0.681737345739E+02   -0.51827E-02   -0.51825E-02   512   0.322E-02 0.101E-05
CGA:   3    -0.681745197149E+02   -0.78514E-03   -0.78528E-03   512   0.420E-03-0.107E-05
CGA:   4    -0.681746233095E+02   -0.10359E-03   -0.10362E-03   512   0.754E-04 0.305E-07
CGA:   5    -0.681746430180E+02   -0.19708E-04   -0.19710E-04   512   0.148E-04-0.813E-08
CGA:   6    -0.681746475600E+02   -0.45420E-05   -0.45413E-05   512   0.404E-05-0.134E-07
CGA:   7    -0.681746490304E+02   -0.14704E-05   -0.14700E-05   512   0.148E-05 0.728E-08
CGA:   8    -0.681746496215E+02   -0.59114E-06   -0.59086E-06   512   0.521E-06-0.160E-08
CGA:   9    -0.681746498262E+02   -0.20469E-06   -0.20451E-06   512   0.153E-06-0.405E-08
CGA:  10    -0.681746498869E+02   -0.60661E-07   -0.60317E-07   512   0.454E-07 0.138E-08
CGA:  11    -0.681746499075E+02   -0.20586E-07   -0.20197E-07   512   0.160E-07 0.604E-09
CGA:  12    -0.681746499148E+02   -0.73787E-08   -0.69210E-08   512   0.463E-08 0.999E-09
  30 F= -.68174650E+02 E0= -.68174650E+02  d E =-.873890E-19
       N       E                     dE             d eps       ncg     rms          ort
SDA:   1    -0.681625922981E+02    0.12058E-01    0.00000E+00   512   0.230E-01 0.000E+00
CGA:   2    -0.681730181847E+02   -0.10426E-01   -0.10426E-01   512   0.577E-02-0.795E-05
CGA:   3    -0.681744019071E+02   -0.13837E-02   -0.13838E-02   512   0.795E-03 0.219E-05
CGA:   4    -0.681745967143E+02   -0.19481E-03   -0.19484E-03   512   0.143E-03-0.158E-06
CGA:   5    -0.681746342884E+02   -0.37574E-04   -0.37580E-04   512   0.296E-04-0.687E-08
CGA:   6    -0.681746432892E+02   -0.90007E-05   -0.90035E-05   512   0.809E-05 0.498E-07
CGA:   7    -0.681746461427E+02   -0.28535E-05   -0.28534E-05   512   0.264E-05-0.246E-07
CGA:   8    -0.681746471094E+02   -0.96671E-06   -0.96641E-06   512   0.761E-06 0.438E-08
CGA:   9    -0.681746473821E+02   -0.27273E-06   -0.27238E-06   512   0.183E-06 0.176E-07
CGA:  10    -0.681746474533E+02   -0.71223E-07   -0.70991E-07   512   0.493E-07 0.199E-08
CGA:  11    -0.681746474735E+02   -0.20187E-07   -0.19885E-07   512   0.152E-07 0.269E-08
CGA:  12    -0.681746474804E+02   -0.69294E-08   -0.66262E-08   512   0.516E-08 0.206E-08
  31 F= -.68174647E+02 E0= -.68174647E+02  d E =-.268621E-18
       N       E                     dE             d eps       ncg     rms          ort
SDA:   1    -0.681687623370E+02    0.58851E-02    0.00000E+00   512   0.117E-01 0.000E+00
CGA:   2    -0.681740009488E+02   -0.52386E-02   -0.52383E-02   512   0.293E-02 0.248E-05
CGA:   3    -0.681747150942E+02   -0.71415E-03   -0.71405E-03   512   0.406E-03-0.273E-05
CGA:   4    -0.681748135422E+02   -0.98448E-04   -0.98483E-04   512   0.720E-04 0.139E-06
CGA:   5    -0.681748323605E+02   -0.18818E-04   -0.18820E-04   512   0.146E-04-0.795E-08
CGA:   6    -0.681748368076E+02   -0.44471E-05   -0.44447E-05   512   0.406E-05-0.509E-07
CGA:   7    -0.681748382208E+02   -0.14132E-05   -0.14129E-05   512   0.134E-05 0.209E-07
CGA:   8    -0.681748387295E+02   -0.50870E-06   -0.50861E-06   512   0.412E-06-0.378E-08
CGA:   9    -0.681748388856E+02   -0.15604E-06   -0.15632E-06   512   0.109E-06-0.154E-07
CGA:  10    -0.681748389242E+02   -0.38605E-07   -0.38406E-07   512   0.265E-07 0.834E-09
CGA:  11    -0.681748389361E+02   -0.11923E-07   -0.11816E-07   512   0.999E-08-0.808E-09
CGA:  12    -0.681748389410E+02   -0.49122E-08   -0.47288E-08   512   0.390E-08-0.603E-09
  32 F= -.68174839E+02 E0= -.68174839E+02  d E =-.128533E-18
       N       E                     dE             d eps       ncg     rms          ort
SDA:   1    -0.681626774387E+02    0.12161E-01    0.00000E+00   512   0.234E-01 0.000E+00
CGA:   2    -0.681732174857E+02   -0.10540E-01   -0.10540E-01   512   0.572E-02-0.559E-05
CGA:   3    -0.681746001182E+02   -0.13826E-02   -0.13827E-02   512   0.778E-03 0.104E-05
CGA:   4    -0.681747919817E+02   -0.19186E-03   -0.19190E-03   512   0.140E-03-0.117E-06
CGA:   5    -0.681748283421E+02   -0.36360E-04   -0.36367E-04   512   0.276E-04 0.984E-08
CGA:   6    -0.681748367036E+02   -0.83615E-05   -0.83633E-05   512   0.734E-05 0.294E-07
CGA:   7    -0.681748393128E+02   -0.26092E-05   -0.26093E-05   512   0.248E-05-0.179E-07
CGA:   8    -0.681748402490E+02   -0.93617E-06   -0.93596E-06   512   0.773E-06 0.521E-08
CGA:   9    -0.681748405384E+02   -0.28942E-06   -0.28907E-06   512   0.204E-06 0.118E-07
CGA:  10    -0.681748406204E+02   -0.82062E-07   -0.82023E-07   512   0.606E-07 0.629E-09
CGA:  11    -0.681748406466E+02   -0.26178E-07   -0.26004E-07   512   0.210E-07 0.181E-08
CGA:  12    -0.681748406566E+02   -0.99426E-08   -0.97616E-08   512   0.732E-08 0.116E-08
  33 F= -.68174841E+02 E0= -.68174841E+02  d E =-.146528E-18
       N       E                     dE             d eps       ncg     rms          ort
SDA:   1    -0.681685938766E+02    0.62468E-02    0.00000E+00   512   0.115E-01 0.000E+00
CGA:   2    -0.681737488342E+02   -0.51550E-02   -0.51546E-02   512   0.296E-02 0.256E-05
CGA:   3    -0.681744596819E+02   -0.71085E-03   -0.71084E-03   512   0.410E-03-0.277E-05
CGA:   4    -0.681745595905E+02   -0.99909E-04   -0.99933E-04   512   0.735E-04 0.455E-07
CGA:   5    -0.681745790404E+02   -0.19450E-04   -0.19454E-04   512   0.158E-04 0.755E-08
CGA:   6    -0.681745839088E+02   -0.48684E-05   -0.48667E-05   512   0.449E-05-0.423E-07
CGA:   7    -0.681745854686E+02   -0.15598E-05   -0.15598E-05   512   0.141E-05 0.183E-07
CGA:   8    -0.681745859838E+02   -0.51521E-06   -0.51513E-06   512   0.390E-06-0.106E-08
CGA:   9    -0.681745861267E+02   -0.14281E-06   -0.14289E-06   512   0.942E-07-0.139E-07
CGA:  10    -0.681745861591E+02   -0.32450E-07   -0.32285E-07   512   0.204E-07-0.285E-09
CGA:  11    -0.681745861676E+02   -0.84965E-08   -0.83865E-08   512   0.618E-08-0.811E-09
  34 F= -.68174586E+02 E0= -.68174586E+02  d E =-.140256E-18
       N       E                     dE             d eps       ncg     rms          ort
SDA:   1    -0.681625610075E+02    0.12025E-01    0.00000E+00   512   0.232E-01 0.000E+00
CGA:   2    -0.681727427377E+02   -0.10182E-01   -0.10182E-01   512   0.653E-02-0.775E-05
CGA:   3    -0.681743167940E+02   -0.15741E-02   -0.15741E-02   512   0.853E-03 0.211E-05
CGA:   4    -0.681745260113E+02   -0.20922E-03   -0.20927E-03   512   0.154E-03-0.407E-07
CGA:   5    -0.681745670623E+02   -0.41051E-04   -0.41059E-04   512   0.324E-04 0.164E-07
CGA:   6    -0.681745771424E+02   -0.10080E-04   -0.10082E-04   512   0.919E-05 0.361E-07
CGA:   7    -0.681745804684E+02   -0.33259E-05   -0.33260E-05   512   0.317E-05-0.250E-07
CGA:   8    -0.681745816648E+02   -0.11964E-05   -0.11960E-05   512   0.976E-06 0.624E-08
CGA:   9    -0.681745820279E+02   -0.36314E-06   -0.36261E-06   512   0.262E-06 0.176E-07
CGA:  10    -0.681745821345E+02   -0.10660E-06   -0.10627E-06   512   0.813E-07 0.258E-08
CGA:  11    -0.681745821701E+02   -0.35613E-07   -0.35177E-07   512   0.280E-07 0.298E-08
CGA:  12    -0.681745821832E+02   -0.13124E-07   -0.12838E-07   512   0.920E-08 0.148E-08
CGA:  13    -0.681745821878E+02   -0.45638E-08   -0.44512E-08   512   0.278E-08-0.219E-09
  35 F= -.68174582E+02 E0= -.68174582E+02  d E =-.292625E-18
       N       E                     dE             d eps       ncg     rms          ort
SDA:   1    -0.681687089614E+02    0.58732E-02    0.00000E+00   512   0.114E-01 0.000E+00
CGA:   2    -0.681737101565E+02   -0.50012E-02   -0.50009E-02   512   0.328E-02 0.234E-05
CGA:   3    -0.681744973952E+02   -0.78724E-03   -0.78720E-03   512   0.438E-03-0.326E-05
CGA:   4    -0.681746039943E+02   -0.10660E-03   -0.10662E-03   512   0.790E-04-0.321E-07
CGA:   5    -0.681746252296E+02   -0.21235E-04   -0.21239E-04   512   0.179E-04 0.575E-08
CGA:   6    -0.681746308830E+02   -0.56534E-05   -0.56521E-05   512   0.535E-05-0.420E-07
CGA:   7    -0.681746327559E+02   -0.18729E-05   -0.18729E-05   512   0.169E-05 0.241E-07
CGA:   8    -0.681746333652E+02   -0.60932E-06   -0.60933E-06   512   0.458E-06 0.457E-09
CGA:   9    -0.681746335326E+02   -0.16743E-06   -0.16766E-06   512   0.114E-06-0.164E-07
CGA:  10    -0.681746335731E+02   -0.40515E-07   -0.40595E-07   512   0.278E-07-0.199E-08
CGA:  11    -0.681746335849E+02   -0.11772E-07   -0.11918E-07   512   0.951E-08-0.183E-08
CGA:  12    -0.681746335892E+02   -0.43083E-08   -0.44928E-08   512   0.388E-08-0.156E-08
  36 F= -.68174634E+02 E0= -.68174634E+02  d E =-.130006E-18
       N       E                     dE             d eps       ncg     rms          ort
SDA:   1    -0.681625991997E+02    0.12034E-01    0.00000E+00   512   0.229E-01 0.000E+00
CGA:   2    -0.681730222047E+02   -0.10423E-01   -0.10423E-01   512   0.569E-02-0.827E-05
CGA:   3    -0.681743890481E+02   -0.13668E-02   -0.13670E-02   512   0.782E-03 0.213E-05
CGA:   4    -0.681745808571E+02   -0.19181E-03   -0.19184E-03   512   0.141E-03-0.144E-06
CGA:   5    -0.681746179110E+02   -0.37054E-04   -0.37060E-04   512   0.293E-04-0.313E-08
CGA:   6    -0.681746268316E+02   -0.89206E-05   -0.89233E-05   512   0.804E-05 0.468E-07
CGA:   7    -0.681746296658E+02   -0.28342E-05   -0.28340E-05   512   0.261E-05-0.251E-07
CGA:   8    -0.681746306189E+02   -0.95312E-06   -0.95277E-06   512   0.742E-06 0.656E-08
CGA:   9    -0.681746308845E+02   -0.26558E-06   -0.26527E-06   512   0.176E-06 0.170E-07
CGA:  10    -0.681746309527E+02   -0.68217E-07   -0.67935E-07   512   0.466E-07 0.214E-08
CGA:  11    -0.681746309716E+02   -0.18931E-07   -0.18576E-07   512   0.140E-07 0.288E-08
CGA:  12    -0.681746309781E+02   -0.64265E-08   -0.60592E-08   512   0.472E-08 0.209E-08
  37 F= -.68174631E+02 E0= -.68174631E+02  d E =-.953828E-18
