       N       E                     dE             d eps       ncg     rms          ort
DAV:   1     0.258178636248E+04    0.25818E+04   -0.20132E+05  1440   0.235E+03
DAV:   2    -0.519524440047E+02   -0.26337E+04   -0.25103E+04  1440   0.376E+02
DAV:   3    -0.510462327093E+03   -0.45851E+03   -0.45179E+03  1440   0.158E+02
DAV:   4    -0.529491299446E+03   -0.19029E+02   -0.18891E+02  1440   0.332E+01
DAV:   5    -0.530345775422E+03   -0.85448E+00   -0.85330E+00  1440   0.652E+00
SDA:   6    -0.416138917762E+03    0.11421E+03   -0.85330E+00  1440   0.302E+03 0.000E+00
CGA:   7    -0.468014183347E+03   -0.51875E+02   -0.51659E+02  1440   0.225E+02-0.174E+01
CGA:   8    -0.473775894736E+03   -0.57617E+01   -0.57388E+01  1440   0.627E+01 0.293E+00
CGA:   9    -0.475940458440E+03   -0.21646E+01   -0.21668E+01  1440   0.194E+01-0.241E-01
CGA:  10    -0.476635244136E+03   -0.69479E+00   -0.69893E+00  1440   0.586E+00-0.250E-01
CGA:  11    -0.476829675878E+03   -0.19443E+00   -0.19471E+00  1440   0.158E+00-0.188E-02
CGA:  12    -0.476881104223E+03   -0.51428E-01   -0.51484E-01  1440   0.375E-01-0.473E-03
CGA:  13    -0.476894831016E+03   -0.13727E-01   -0.13739E-01  1440   0.103E-01-0.832E-04
CGA:  14    -0.476898755668E+03   -0.39247E-02   -0.39268E-02  1440   0.325E-02-0.153E-04
CGA:  15    -0.476900075333E+03   -0.13197E-02   -0.13207E-02  1440   0.112E-02-0.613E-05
CGA:  16    -0.476900559469E+03   -0.48414E-03   -0.48227E-03  1440   0.433E-03 0.104E-04
CGA:  17    -0.476900747733E+03   -0.18826E-03   -0.18738E-03  1440   0.154E-03 0.524E-05
CGA:  18    -0.476900817881E+03   -0.70148E-04   -0.70884E-04  1440   0.553E-04-0.395E-05
CGA:  19    -0.476900841943E+03   -0.24061E-04   -0.24362E-04  1440   0.188E-04-0.171E-05
CGA:  20    -0.476900849754E+03   -0.78113E-05   -0.79099E-05  1440   0.649E-05-0.666E-06
CGA:  21    -0.476900852202E+03   -0.24479E-05   -0.24160E-05  1440   0.192E-05 0.345E-06
CGA:  22    -0.476900853144E+03   -0.94179E-06   -0.95271E-06  1440   0.687E-06-0.640E-07
CGA:  23    -0.476900853448E+03   -0.30392E-06   -0.30121E-06  1440   0.241E-06 0.189E-07
CGA:  24    -0.476900853566E+03   -0.11854E-06   -0.12858E-06  1440   0.143E-06-0.482E-07
CGA:  25    -0.476900853614E+03   -0.47541E-07   -0.49128E-07  1440   0.563E-07-0.150E-07
   1 F= -.47690085E+03 E0= -.47690085E+03  d E =-.476901E+03
       N       E                     dE             d eps       ncg     rms          ort
SDA:   1    -0.476900850989E+03    0.25771E-05    0.00000E+00  1440   0.521E-05 0.000E+00
CGA:   2    -0.476900852982E+03   -0.19930E-05   -0.19852E-05  1440   0.198E-05 0.141E-06
CGA:   3    -0.476900853496E+03   -0.51361E-06   -0.50921E-06  1440   0.309E-06-0.563E-07
CGA:   4    -0.476900853571E+03   -0.75379E-07   -0.75269E-07  1440   0.481E-07-0.125E-08
   2 F= -.47690085E+03 E0= -.47690085E+03  d E =0.425789E-07
       N       E                     dE             d eps       ncg     rms          ort
SDA:   1    -0.476900852430E+03    0.10656E-05    0.00000E+00  1440   0.240E-05 0.000E+00
CGA:   2    -0.476900853388E+03   -0.95801E-06   -0.96155E-06  1440   0.102E-05-0.391E-07
CGA:   3    -0.476900853596E+03   -0.20780E-06   -0.21188E-06  1440   0.116E-06 0.399E-07
CGA:   4    -0.476900853628E+03   -0.31767E-07   -0.31970E-07  1440   0.199E-07 0.379E-08
   3 F= -.47690085E+03 E0= -.47690085E+03  d E =-.140135E-07
       N       E                     dE             d eps       ncg     rms          ort
SDA:   1    -0.476900853337E+03    0.25917E-06    0.00000E+00  1440   0.113E-05 0.000E+00
CGA:   2    -0.476900853545E+03   -0.20867E-06   -0.22806E-06  1440   0.270E-06 0.529E-07
CGA:   3    -0.476900853613E+03   -0.67812E-07   -0.71056E-07  1440   0.375E-07 0.114E-07
   4 F= -.47690085E+03 E0= -.47690085E+03  d E =0.436557E-09
       N       E                     dE             d eps       ncg     rms          ort
SDA:   1    -0.476900853104E+03    0.44107E-06    0.00000E+00  1440   0.103E-05 0.000E+00
CGA:   2    -0.476900853529E+03   -0.42462E-06   -0.42626E-06  1440   0.394E-06 0.146E-07
CGA:   3    -0.476900853641E+03   -0.11166E-06   -0.10415E-06  1440   0.594E-07-0.290E-07
CGA:   4    -0.476900853651E+03   -0.10798E-07   -0.11710E-07  1440   0.876E-08 0.288E-08
   5 F= -.47690085E+03 E0= -.47690085E+03  d E =-.381988E-07
       N       E                     dE             d eps       ncg     rms          ort
SDA:   1    -0.476900853634E+03    0.65338E-08    0.00000E+00  1440   0.401E-07 0.000E+00
CGA:   2    -0.476900853644E+03   -0.10012E-07   -0.12188E-07  1440   0.108E-07 0.126E-07
   6 F= -.47690085E+03 E0= -.47690085E+03  d E =-.308792E-07
       N       E                     dE             d eps       ncg     rms          ort
SDA:   1    -0.476900853641E+03   -0.66648E-08    0.00000E+00  1440   0.129E-07 0.000E+00
CGA:   2    -0.476900853646E+03   -0.54570E-08   -0.53980E-08  1440   0.632E-08-0.162E-08
   7 F= -.47690085E+03 E0= -.47690085E+03  d E =-.329892E-07
       N       E                     dE             d eps       ncg     rms          ort
SDA:   1    -0.476900853648E+03   -0.76980E-08    0.00000E+00  1440   0.125E-07 0.000E+00
CGA:   2    -0.476900853649E+03   -0.69849E-09   -0.13256E-08  1440   0.726E-09 0.212E-08
   8 F= -.47690085E+03 E0= -.47690085E+03  d E =-.359287E-07
       N       E                     dE             d eps       ncg     rms          ort
SDA:   1    -0.476900853649E+03   -0.72760E-09    0.00000E+00  1440   0.133E-08 0.000E+00
CGA:   2    -0.476900853649E+03    0.24738E-09   -0.93805E-10  1440   0.647E-09 0.926E-09
   9 F= -.47690085E+03 E0= -.47690085E+03  d E =-.357104E-07
       N       E                     dE             d eps       ncg     rms          ort
SDA:   1    -0.476900853122E+03    0.52697E-06    0.00000E+00  1440   0.103E-05 0.000E+00
CGA:   2    -0.476900853550E+03   -0.42732E-06   -0.42647E-06  1440   0.315E-06 0.297E-07
CGA:   3    -0.476900853643E+03   -0.93089E-07   -0.88863E-07  1440   0.615E-07-0.373E-07
  10 F= -.47690085E+03 E0= -.47690085E+03  d E =0.631553E-08
       N       E                     dE             d eps       ncg     rms          ort
SDA:   1    -0.476900853652E+03   -0.10195E-06    0.00000E+00  1440   0.120E-07 0.000E+00
CGA:   2    -0.476900853650E+03    0.13970E-08   -0.87714E-09  1440   0.571E-08 0.810E-08
  11 F= -.47690085E+03 E0= -.47690085E+03  d E =-.114960E-08
       N       E                     dE             d eps       ncg     rms          ort
SDA:   1    -0.476900853646E+03    0.51223E-08    0.00000E+00  1440   0.504E-08 0.000E+00
CGA:   2    -0.476900853646E+03    0.21828E-09   -0.45941E-09  1440   0.251E-08 0.340E-08
  12 F= -.47690085E+03 E0= -.47690085E+03  d E =0.279397E-08
       N       E                     dE             d eps       ncg     rms          ort
SDA:   1    -0.476900853450E+03    0.19590E-06    0.00000E+00  1440   0.403E-06 0.000E+00
CGA:   2    -0.476900853614E+03   -0.16303E-06   -0.16029E-06  1440   0.117E-06 0.343E-07
CGA:   3    -0.476900853656E+03   -0.42084E-07   -0.42564E-07  1440   0.500E-07-0.396E-07
  13 F= -.47690085E+03 E0= -.47690085E+03  d E =-.942964E-08
       N       E                     dE             d eps       ncg     rms          ort
SDA:   1    -0.476900851789E+03    0.18240E-05    0.00000E+00  1440   0.358E-05 0.000E+00
CGA:   2    -0.476900853271E+03   -0.14811E-05   -0.14745E-05  1440   0.122E-05 0.635E-07
CGA:   3    -0.476900853603E+03   -0.33273E-06   -0.32715E-06  1440   0.209E-06-0.107E-06
CGA:   4    -0.476900853638E+03   -0.34284E-07   -0.37696E-07  1440   0.272E-07 0.294E-07
  14 F= -.47690085E+03 E0= -.47690085E+03  d E =0.862929E-08
       N       E                     dE             d eps       ncg     rms          ort
SDA:   1    -0.476900853556E+03    0.47003E-07    0.00000E+00  1440   0.204E-06 0.000E+00
CGA:   2    -0.476900853630E+03   -0.73720E-07   -0.71782E-07  1440   0.462E-07 0.393E-07
  15 F= -.47690085E+03 E0= -.47690085E+03  d E =0.161963E-07
       N       E                     dE             d eps       ncg     rms          ort
SDA:   1    -0.476900853602E+03   -0.45373E-07    0.00000E+00  1440   0.748E-07 0.000E+00
CGA:   2    -0.476900853635E+03   -0.33251E-07   -0.42731E-07  1440   0.566E-07-0.346E-07
  16 F= -.47690085E+03 E0= -.47690085E+03  d E =0.112923E-07
       N       E                     dE             d eps       ncg     rms          ort
SDA:   1    -0.476900853642E+03   -0.39989E-07    0.00000E+00  1440   0.122E-07 0.000E+00
CGA:   2    -0.476900853641E+03    0.77125E-09   -0.11672E-08  1440   0.579E-08 0.823E-08
  17 F= -.47690085E+03 E0= -.47690085E+03  d E =0.532600E-08
       N       E                     dE             d eps       ncg     rms          ort
SDA:   1    -0.476900853641E+03    0.72760E-09    0.00000E+00  1440   0.613E-08 0.000E+00
CGA:   2    -0.476900853641E+03   -0.49477E-09   -0.90276E-09  1440   0.167E-08 0.296E-08
  18 F= -.47690085E+03 E0= -.47690085E+03  d E =0.478758E-08
       N       E                     dE             d eps       ncg     rms          ort
SDA:   1    -0.476900853642E+03   -0.11787E-08    0.00000E+00  1440   0.169E-08 0.000E+00
CGA:   2    -0.476900853642E+03    0.29104E-09   -0.95361E-10  1440   0.117E-08 0.140E-08
  19 F= -.47690085E+03 E0= -.47690085E+03  d E =0.439468E-08
       N       E                     dE             d eps       ncg     rms          ort
SDA:   1    -0.476900853582E+03    0.59954E-07    0.00000E+00  1440   0.117E-06 0.000E+00
CGA:   2    -0.476900853634E+03   -0.51776E-07   -0.50902E-07  1440   0.337E-07 0.368E-08
  20 F= -.47690085E+03 E0= -.47690085E+03  d E =0.788714E-08
       N       E                     dE             d eps       ncg     rms          ort
SDA:   1    -0.476900853641E+03   -0.59285E-07    0.00000E+00  1440   0.137E-07 0.000E+00
CGA:   2    -0.476900853642E+03   -0.91677E-09   -0.17003E-08  1440   0.399E-08 0.530E-08
  21 F= -.47690085E+03 E0= -.47690085E+03  d E =-.538421E-09
       N       E                     dE             d eps       ncg     rms          ort
SDA:   1    -0.476900853643E+03   -0.19936E-08    0.00000E+00  1440   0.262E-08 0.000E+00
CGA:   2    -0.476900853643E+03    0.72760E-10   -0.22107E-09  1440   0.109E-08 0.160E-08
  22 F= -.47690085E+03 E0= -.47690085E+03  d E =-.154250E-08
       N       E                     dE             d eps       ncg     rms          ort
SDA:   1    -0.476900853643E+03    0.24738E-09    0.00000E+00  1440   0.741E-09 0.000E+00
CGA:   2    -0.476900853643E+03    0.14552E-10   -0.12854E-09  1440   0.400E-09 0.445E-09
  23 F= -.47690085E+03 E0= -.47690085E+03  d E =-.135333E-08
       N       E                     dE             d eps       ncg     rms          ort
SDA:   1    -0.476900853643E+03   -0.72760E-10    0.00000E+00  1440   0.271E-07 0.000E+00
CGA:   2    -0.476900853655E+03   -0.11962E-07   -0.14794E-07  1440   0.193E-07-0.885E-08
  24 F= -.47690085E+03 E0= -.47690085E+03  d E =-.120490E-07
       N       E                     dE             d eps       ncg     rms          ort
SDA:   1    -0.476900853574E+03    0.68991E-07    0.00000E+00  1440   0.205E-06 0.000E+00
CGA:   2    -0.476900853675E+03   -0.10032E-06   -0.10839E-06  1440   0.779E-07-0.264E-07
CGA:   3    -0.476900853682E+03   -0.73051E-08   -0.93214E-08  1440   0.163E-07 0.226E-07
  25 F= -.47690085E+03 E0= -.47690085E+03  d E =-.387226E-07
       N       E                     dE             d eps       ncg     rms          ort
SDA:   1    -0.476900853226E+03    0.44807E-06    0.00000E+00  1440   0.886E-06 0.000E+00
CGA:   2    -0.476900853618E+03   -0.39132E-06   -0.40907E-06  1440   0.368E-06-0.757E-07
CGA:   3    -0.476900853674E+03   -0.56039E-07   -0.60227E-07  1440   0.516E-07 0.676E-07
  26 F= -.47690085E+03 E0= -.47690085E+03  d E =-.307045E-07
       N       E                     dE             d eps       ncg     rms          ort
SDA:   1    -0.476900853623E+03   -0.56025E-08    0.00000E+00  1440   0.150E-06 0.000E+00
CGA:   2    -0.476900853685E+03   -0.61467E-07   -0.65533E-07  1440   0.452E-07-0.198E-07
  27 F= -.47690085E+03 E0= -.47690085E+03  d E =-.417349E-07
       N       E                     dE             d eps       ncg     rms          ort
SDA:   1    -0.476900853651E+03   -0.28100E-07    0.00000E+00  1440   0.921E-07 0.000E+00
CGA:   2    -0.476900853673E+03   -0.21988E-07   -0.22210E-07  1440   0.295E-07 0.323E-07
  28 F= -.47690085E+03 E0= -.47690085E+03  d E =-.303553E-07
       N       E                     dE             d eps       ncg     rms          ort
SDA:   1    -0.476900853684E+03   -0.33004E-07    0.00000E+00  1440   0.181E-07 0.000E+00
CGA:   2    -0.476900853685E+03   -0.37835E-09   -0.19456E-08  1440   0.708E-08 0.974E-08
  29 F= -.47690085E+03 E0= -.47690085E+03  d E =-.417494E-07
       N       E                     dE             d eps       ncg     rms          ort
SDA:   1    -0.476900853688E+03   -0.30414E-08    0.00000E+00  1440   0.853E-08 0.000E+00
CGA:   2    -0.476900853692E+03   -0.45111E-08    0.21203E-07  1440   0.258E-08-0.190E-08
  30 F= -.47690085E+03 E0= -.47690085E+03  d E =-.489235E-07
       N       E                     dE             d eps       ncg     rms          ort
SDA:   1    -0.476900853692E+03   -0.45547E-08    0.00000E+00  1440   0.708E-09 0.000E+00
CGA:   2    -0.476900853692E+03   -0.13097E-09   -0.63742E-10  1440   0.449E-09 0.545E-09
  31 F= -.47690085E+03 E0= -.47690085E+03  d E =-.490982E-07
       N       E                     dE             d eps       ncg     rms          ort
SDA:   1    -0.476900853693E+03   -0.52387E-09    0.00000E+00  1440   0.951E-09 0.000E+00
CGA:   2    -0.476900853693E+03    0.72760E-10   -0.62933E-10  1440   0.517E-09 0.691E-09
  32 F= -.47690085E+03 E0= -.47690085E+03  d E =-.494183E-07
       N       E                     dE             d eps       ncg     rms          ort
SDA:   1    -0.476900853689E+03    0.34925E-08    0.00000E+00  1440   0.139E-07 0.000E+00
CGA:   2    -0.476900853694E+03   -0.53697E-08   -0.62826E-08  1440   0.956E-08-0.293E-08
  33 F= -.47690085E+03 E0= -.47690085E+03  d E =-.194996E-08
       N       E                     dE             d eps       ncg     rms          ort
SDA:   1    -0.476900853642E+03    0.46974E-07    0.00000E+00  1440   0.115E-06 0.000E+00
CGA:   2    -0.476900853693E+03   -0.50379E-07   -0.51653E-07  1440   0.489E-07-0.449E-08
  34 F= -.47690085E+03 E0= -.47690085E+03  d E =0.145519E-10
       N       E                     dE             d eps       ncg     rms          ort
SDA:   1    -0.476900853696E+03   -0.54264E-07    0.00000E+00  1440   0.151E-07 0.000E+00
CGA:   2    -0.476900853702E+03   -0.54279E-08   -0.49344E-08  1440   0.479E-08 0.499E-08
  35 F= -.47690085E+03 E0= -.47690085E+03  d E =-.929867E-08
       N       E                     dE             d eps       ncg     rms          ort
SDA:   1    -0.476900853701E+03   -0.44674E-08    0.00000E+00  1440   0.393E-08 0.000E+00
CGA:   2    -0.476900853702E+03   -0.14115E-08   -0.19021E-08  1440   0.407E-08-0.217E-08
  36 F= -.47690085E+03 E0= -.47690085E+03  d E =-.974978E-08
       N       E                     dE             d eps       ncg     rms          ort
SDA:   1    -0.476900853703E+03   -0.23574E-08    0.00000E+00  1440   0.208E-08 0.000E+00
CGA:   2    -0.476900853703E+03   -0.24738E-09   -0.39005E-09  1440   0.694E-09 0.805E-09
  37 F= -.47690085E+03 E0= -.47690085E+03  d E =-.109430E-07
       N       E                     dE             d eps       ncg     rms          ort
SDA:   1    -0.476900853703E+03    0.18917E-09    0.00000E+00  1440   0.621E-08 0.000E+00
CGA:   2    -0.476900853705E+03   -0.23865E-08   -0.32221E-08  1440   0.556E-08-0.195E-08
  38 F= -.47690085E+03 E0= -.47690085E+03  d E =-.194996E-08
       N       E                     dE             d eps       ncg     rms          ort
SDA:   1    -0.476900853691E+03    0.12486E-07    0.00000E+00  1440   0.395E-07 0.000E+00
CGA:   2    -0.476900853710E+03   -0.19762E-07   -0.22943E-07  1440   0.191E-07-0.840E-08
  39 F= -.47690085E+03 E0= -.47690085E+03  d E =-.683940E-08
       N       E                     dE             d eps       ncg     rms          ort
SDA:   1    -0.476900853635E+03    0.55879E-07    0.00000E+00  1440   0.157E-06 0.000E+00
CGA:   2    -0.476900853710E+03   -0.75757E-07   -0.76969E-07  1440   0.543E-07-0.587E-08
  40 F= -.47690085E+03 E0= -.47690085E+03  d E =-.695582E-08
       N       E                     dE             d eps       ncg     rms          ort
SDA:   1    -0.476900853717E+03   -0.82393E-07    0.00000E+00  1440   0.863E-08 0.000E+00
CGA:   2    -0.476900853720E+03   -0.25320E-08   -0.25821E-08  1440   0.313E-08 0.193E-08
  41 F= -.47690085E+03 E0= -.47690085E+03  d E =-.161235E-07
       N       E                     dE             d eps       ncg     rms          ort
SDA:   1    -0.476900853720E+03   -0.28231E-08    0.00000E+00  1440   0.855E-09 0.000E+00
CGA:   2    -0.476900853720E+03   -0.17462E-09   -0.20596E-09  1440   0.275E-09 0.224E-09
  42 F= -.47690085E+03 E0= -.47690085E+03  d E =-.165892E-07
       N       E                     dE             d eps       ncg     rms          ort
SDA:   1    -0.476900853721E+03   -0.64028E-09    0.00000E+00  1440   0.293E-09 0.000E+00
CGA:   2    -0.476900853721E+03   -0.42201E-09    0.22546E-10  1440   0.976E-10 0.841E-10
  43 F= -.47690085E+03 E0= -.47690085E+03  d E =-.174769E-07
       N       E                     dE             d eps       ncg     rms          ort
SDA:   1    -0.476900853717E+03    0.34197E-08    0.00000E+00  1440   0.119E-07 0.000E+00
CGA:   2    -0.476900853722E+03   -0.49913E-08   -0.63818E-08  1440   0.847E-08-0.343E-08
  44 F= -.47690085E+03 E0= -.47690085E+03  d E =-.114960E-08
       N       E                     dE             d eps       ncg     rms          ort
SDA:   1    -0.476900853684E+03    0.33251E-07    0.00000E+00  1440   0.853E-07 0.000E+00
CGA:   2    -0.476900853720E+03   -0.36322E-07   -0.39230E-07  1440   0.562E-07-0.146E-07
  45 F= -.47690085E+03 E0= -.47690085E+03  d E =0.771252E-09
       N       E                     dE             d eps       ncg     rms          ort
SDA:   1    -0.476900853530E+03    0.15348E-06    0.00000E+00  1440   0.361E-06 0.000E+00
CGA:   2    -0.476900853690E+03   -0.15958E-06   -0.16261E-06  1440   0.171E-06-0.167E-07
CGA:   3    -0.476900853726E+03   -0.36292E-07   -0.35291E-07  1440   0.220E-07-0.141E-07
  46 F= -.47690085E+03 E0= -.47690085E+03  d E =-.529690E-08
       N       E                     dE             d eps       ncg     rms          ort
SDA:   1    -0.476900853727E+03   -0.36671E-07    0.00000E+00  1440   0.112E-07 0.000E+00
CGA:   2    -0.476900853729E+03   -0.24738E-08   -0.25615E-08  1440   0.368E-08 0.340E-08
  47 F= -.47690085E+03 E0= -.47690085E+03  d E =-.285218E-08
       N       E                     dE             d eps       ncg     rms          ort
SDA:   1    -0.476900853731E+03   -0.48021E-08    0.00000E+00  1440   0.100E-08 0.000E+00
CGA:   2    -0.476900853732E+03   -0.72760E-10   -0.81108E-10  1440   0.556E-09 0.711E-09
  48 F= -.47690085E+03 E0= -.47690085E+03  d E =-.525324E-08
       N       E                     dE             d eps       ncg     rms          ort
SDA:   1    -0.476900853731E+03    0.56752E-09    0.00000E+00  1440   0.501E-09 0.000E+00
CGA:   2    -0.476900853731E+03   -0.52387E-09    0.65142E-10  1440   0.207E-09 0.435E-10
  49 F= -.47690085E+03 E0= -.47690085E+03  d E =-.513683E-08
       N       E                     dE             d eps       ncg     rms          ort
SDA:   1    -0.476900853731E+03   -0.53842E-09    0.00000E+00  1440   0.855E-08 0.000E+00
CGA:   2    -0.476900853735E+03   -0.31287E-08   -0.31192E-08  1440   0.324E-08 0.522E-09
  50 F= -.47690085E+03 E0= -.47690085E+03  d E =-.314321E-08
       N       E                     dE             d eps       ncg     rms          ort
SDA:   1    -0.476900853731E+03    0.55297E-09    0.00000E+00  1440   0.188E-07 0.000E+00
CGA:   2    -0.476900853738E+03   -0.66793E-08   -0.62972E-08  1440   0.545E-08 0.511E-08
  51 F= -.47690085E+03 E0= -.47690085E+03  d E =-.614091E-08
       N       E                     dE             d eps       ncg     rms          ort
SDA:   1    -0.476900853738E+03   -0.70868E-08    0.00000E+00  1440   0.752E-08 0.000E+00
CGA:   2    -0.476900853740E+03   -0.18772E-08   -0.18517E-08  1440   0.225E-08 0.302E-08
  52 F= -.47690085E+03 E0= -.47690085E+03  d E =-.228465E-08
       N       E                     dE             d eps       ncg     rms          ort
SDA:   1    -0.476900853739E+03   -0.14988E-08    0.00000E+00  1440   0.782E-09 0.000E+00
CGA:   2    -0.476900853740E+03   -0.71304E-09    0.12020E-09  1440   0.288E-09 0.352E-09
  53 F= -.47690085E+03 E0= -.47690085E+03  d E =-.261934E-08
       N       E                     dE             d eps       ncg     rms          ort
SDA:   1    -0.476900853741E+03   -0.11787E-08    0.00000E+00  1440   0.945E-10 0.000E+00
CGA:   2    -0.476900853741E+03   -0.11642E-09   -0.21209E-11  1440   0.875E-10 0.899E-10
  54 F= -.47690085E+03 E0= -.47690085E+03  d E =-.320142E-08
       N       E                     dE             d eps       ncg     rms          ort
SDA:   1    -0.476900853741E+03   -0.17462E-09    0.00000E+00  1440   0.831E-10 0.000E+00
CGA:   2    -0.476900853741E+03    0.87311E-10   -0.21595E-11  1440   0.747E-10 0.781E-10
  55 F= -.47690085E+03 E0= -.47690085E+03  d E =-.317232E-08
       N       E                     dE             d eps       ncg     rms          ort
SDA:   1    -0.476900853741E+03    0.87311E-10    0.00000E+00  1440   0.565E-10 0.000E+00
CGA:   2    -0.476900853741E+03   -0.14552E-10   -0.37801E-11  1440   0.423E-10 0.476E-10
  56 F= -.47690085E+03 E0= -.47690085E+03  d E =-.318687E-08
       N       E                     dE             d eps       ncg     rms          ort
SDA:   1    -0.476900853741E+03    0.14552E-10    0.00000E+00  1440   0.520E-10 0.000E+00
CGA:   2    -0.476900853741E+03   -0.87311E-10   -0.13492E-11  1440   0.446E-10 0.481E-10
  57 F= -.47690085E+03 E0= -.47690085E+03  d E =-.324508E-08
       N       E                     dE             d eps       ncg     rms          ort
SDA:   1    -0.476900853740E+03    0.20373E-09    0.00000E+00  1440   0.934E-10 0.000E+00
CGA:   2    -0.476900853741E+03   -0.58208E-10   -0.14843E-10  1440   0.267E-10 0.376E-10
  58 F= -.47690085E+03 E0= -.47690085E+03  d E =-.301225E-08
       N       E                     dE             d eps       ncg     rms          ort
SDA:   1    -0.476900853741E+03   -0.13097E-09    0.00000E+00  1440   0.882E-10 0.000E+00
CGA:   2    -0.476900853741E+03   -0.13097E-09    0.22727E-11  1440   0.140E-10 0.194E-10
  59 F= -.47690085E+03 E0= -.47690085E+03  d E =-.321597E-08
       N       E                     dE             d eps       ncg     rms          ort
SDA:   1    -0.476900853735E+03    0.56752E-08    0.00000E+00  1440   0.665E-08 0.000E+00
CGA:   2    -0.476900853737E+03   -0.17608E-08   -0.15842E-08  1440   0.201E-08 0.274E-08
  60 F= -.47690085E+03 E0= -.47690085E+03  d E =0.829459E-09
