 vasp.6.4.1 05Apr23 (build May 30 2023 08:45:49) gamma-only                      
 executed on        HPECrayEX_GCC date 2024.03.25  10:15:15
 running  512 mpi-ranks, with    1 threads/rank, on    4 nodes
 distrk:  each k-point on  512 cores,    1 groups
 distr:  one band on NCORE=   4 cores,  128 groups


--------------------------------------------------------------------------------------------------------


 INCAR:
   NPAR = 128
   ISMEAR = 0
   SIGMA = 0.01
   ALGO = C
   PREC = Accurate
   EDIFF = 1E-8
   ENCUT = 1000
   ISIF = 1
   IBRION = 1
   GGA = ML
   LUSE_VDW = .TRUE.
   ZAB_VDW = -1.8867
   AGGAC = 0.0000
   LASPH = .TRUE.
   LWAVE = .FALSE.
   LCHARG = .FALSE.

 POTCAR:    PAW_PBE C_h 06Feb2004                 
 POTCAR:    PAW_PBE H_h 06Feb2004                 
 -----------------------------------------------------------------------------
|                                                                             |
|               ----> ADVICE to this user running VASP <----                  |
|                                                                             |
|     You have switched on vdW-DFT.                                           |
|     This routine was written and supplied by Jiri Klimes. We recommend      |
|     that you carefully read and cite the following publications:            |
|       J. Klimes, D.R. Bowler, A. Michelides                                 |
|          J. Phys.: Cond Matt. 22 022201 (2010)                              |
|       J. Klimes, D.R. Bowler, A. Michelides                                 |
|          Phys. Rev. B. 83, 195131 (2011)                                    |
|     and references therein.                                                 |
|                                                                             |
 -----------------------------------------------------------------------------

 POTCAR:    PAW_PBE C_h 06Feb2004                 
   VRHFIN =C: s2p2                                                                                  
   LEXCH  = PE                                                                                      
   EATOM  =   147.1560 eV,   10.8157 Ry                                                             
                                                                                                    
   TITEL  = PAW_PBE C_h 06Feb2004                                                                   
   LULTRA =        F    use ultrasoft PP ?                                                          
   IUNSCR =        1    unscreen: 0-lin 1-nonlin 2-no                                               
   RPACOR =    0.800    partial core radius                                                         
   POMASS =   12.011; ZVAL   =    4.000    mass and valenz                                          
   RCORE  =    1.100    outmost cutoff radius                                                       
   RWIGS  =    1.630; RWIGS  =    0.863    wigner-seitz radius (au A)                               
   ENMAX  =  700.000; ENMIN  =  500.000 eV                                                          
   ICORE  =        2    local potential                                                             
   LCOR   =        T    correct aug charges                                                         
   LPAW   =        T    paw PP                                                                      
   EAUG   =  946.768                                                                                
   DEXC   =    0.000                                                                                
   RMAX   =    1.128    core radius for proj-oper                                                   
   RAUG   =    1.300    factor for augmentation sphere                                              
   RDEP   =    1.162    radius for radial grids                                                     
   RDEPT  =    1.088    core radius for aug-charge                                                  
                                                                                                    
   Atomic configuration                                                                             
    4 entries                                                                                       
     n  l   j            E        occ.                                                              
     1  0  0.50      -273.3789   2.0000                                                             
     2  0  0.50       -13.7508   2.0000                                                             
     2  1  0.50        -5.2854   2.0000                                                             
     3  2  1.50        -5.4423   0.0000                                                             
   Description                                                                                      
     l       E           TYP  RCUT    TYP  RCUT                                                     
     0    -13.7508458     23  1.100                                                                 
     0     -8.2022199     23  1.100                                                                 
     1     -5.2854383     23  1.100                                                                 
     1      1.1560700     23  1.100                                                                 
     2     -5.4423304      7  1.100                                                                 
  local pseudopotential read in
  partial core-charges read in
  partial kinetic energy density read in
  atomic valenz-charges read in
  non local Contribution for L=           0  read in
    real space projection operators read in
  non local Contribution for L=           0  read in
    real space projection operators read in
  non local Contribution for L=           1  read in
    real space projection operators read in
  non local Contribution for L=           1  read in
    real space projection operators read in
    PAW grid and wavefunctions read in

   number of l-projection  operators is LMAX  =           4
   number of lm-projection operators is LMMAX =           8

 POTCAR:    PAW_PBE H_h 06Feb2004                 
   VRHFIN =H: ultrasoft test                                                                        
   LEXCH  = PE                                                                                      
   EATOM  =    12.4884 eV,    0.9179 Ry                                                             
                                                                                                    
   TITEL  = PAW_PBE H_h 06Feb2004                                                                   
   LULTRA =        F    use ultrasoft PP ?                                                          
   IUNSCR =        0    unscreen: 0-lin 1-nonlin 2-no                                               
   RPACOR =    0.000    partial core radius                                                         
   POMASS =    1.000; ZVAL   =    1.000    mass and valenz                                          
   RCORE  =    0.800    outmost cutoff radius                                                       
   RWIGS  =    0.700; RWIGS  =    0.370    wigner-seitz radius (au A)                               
   ENMAX  =  700.000; ENMIN  =  350.000 eV                                                          
   RCLOC  =    0.701    cutoff for local pot                                                        
   LCOR   =        T    correct aug charges                                                         
   LPAW   =        T    paw PP                                                                      
   EAUG   = 1000.000                                                                                
   RMAX   =    0.819    core radius for proj-oper                                                   
   RAUG   =    1.000    factor for augmentation sphere                                              
   RDEP   =    0.817    radius for radial grids                                                     
   RDEPT  =    0.817    core radius for aug-charge                                                  
                                                                                                    
   Atomic configuration                                                                             
    2 entries                                                                                       
     n  l   j            E        occ.                                                              
     1  0  0.50        -6.4927   1.0000                                                             
     2  1  0.50        -3.4015   0.0000                                                             
   Description                                                                                      
     l       E           TYP  RCUT    TYP  RCUT                                                     
     0     -6.4927493     23  0.800                                                                 
     0      6.8029130     23  0.800                                                                 
     1     -6.8029130     23  0.800                                                                 
  local pseudopotential read in
  atomic valenz-charges read in
  non local Contribution for L=           0  read in
    real space projection operators read in
  non local Contribution for L=           0  read in
    real space projection operators read in
  non local Contribution for L=           1  read in
    real space projection operators read in
    PAW grid and wavefunctions read in

   number of l-projection  operators is LMAX  =           3
   number of lm-projection operators is LMMAX =           5

 -----------------------------------------------------------------------------
|                                                                             |
|               ----> ADVICE to this user running VASP <----                  |
|                                                                             |
|     You have a (more or less) 'large supercell' and for larger cells it     |
|     might be more efficient to use real-space projection operators.         |
|     Therefore, try LREAL= Auto in the INCAR file.                           |
|     Mind: For very accurate calculation, you might also keep the            |
|     reciprocal projection scheme (i.e. LREAL=.FALSE.).                      |
|                                                                             |
 -----------------------------------------------------------------------------

 -----------------------------------------------------------------------------
|                                                                             |
|               ----> ADVICE to this user running VASP <----                  |
|                                                                             |
|     You enforced a specific xc type in the INCAR file but a different       |
|     type was found in the POTCAR file.                                      |
|     I HOPE YOU KNOW WHAT YOU ARE DOING!                                     |
|                                                                             |
 -----------------------------------------------------------------------------

  PAW_PBE C_h 06Feb2004                 :
 energy of atom  1       EATOM= -147.1560
 kinetic energy error for atom=    0.0031 (will be added to EATOM!!)
  PAW_PBE H_h 06Feb2004                 :
 energy of atom  2       EATOM=  -12.4884
 kinetic energy error for atom=    0.0006 (will be added to EATOM!!)


 POSCAR: super cell
  positions in direct lattice
  No initial velocities read in
 exchange correlation table for  LEXCH =       44
   RHO(1)=    0.500       N(1)  =     2000
   RHO(2)=  100.500       N(2)  =     4000



--------------------------------------------------------------------------------------------------------


 ion  position               nearest neighbor table
   1  0.044  0.013  0.185- 225 1.08   9 1.38  52 1.43
   2  0.544  0.013  0.185- 226 1.08  10 1.38  51 1.43
   3  0.044  0.513  0.185- 227 1.08  11 1.38  50 1.43
   4  0.544  0.513  0.185- 228 1.08  12 1.38  49 1.43
   5  0.044  0.013  0.685- 229 1.08  13 1.38  56 1.43
   6  0.544  0.013  0.685- 230 1.08  14 1.38  55 1.43
   7  0.044  0.513  0.685- 231 1.08  15 1.38  54 1.43
   8  0.544  0.513  0.685- 232 1.08  16 1.38  53 1.43
   9  0.059  0.078  0.141- 233 1.08   1 1.38  17 1.43
  10  0.559  0.078  0.141- 234 1.08   2 1.38  18 1.43
  11  0.059  0.578  0.141- 235 1.08   3 1.38  19 1.43
  12  0.559  0.578  0.141- 236 1.08   4 1.38  20 1.43
  13  0.059  0.078  0.641- 237 1.08   5 1.38  21 1.43
  14  0.559  0.078  0.641- 238 1.08   6 1.38  22 1.43
  15  0.059  0.578  0.641- 239 1.08   7 1.38  23 1.43
  16  0.559  0.578  0.641- 240 1.08   8 1.38  24 1.43
  17  0.030  0.041  0.070-  25 1.40   9 1.43  36 1.45
  18  0.530  0.041  0.070-  26 1.40  10 1.43  35 1.45
  19  0.030  0.541  0.070-  27 1.40  11 1.43  34 1.45
  20  0.530  0.541  0.070-  28 1.40  12 1.43  33 1.45
  21  0.030  0.041  0.570-  29 1.40  13 1.43  40 1.45
  22  0.530  0.041  0.570-  30 1.40  14 1.43  39 1.45
  23  0.030  0.541  0.570-  31 1.40  15 1.43  38 1.45
  24  0.530  0.541  0.570-  32 1.40  16 1.43  37 1.45
  25  0.043  0.105  0.024- 241 1.09  17 1.40  61 1.41
  26  0.543  0.105  0.024- 242 1.09  18 1.40  62 1.41
  27  0.043  0.605  0.024- 243 1.09  19 1.40  63 1.41
  28  0.543  0.605  0.024- 244 1.09  20 1.40  64 1.41
  29  0.043  0.105  0.524- 245 1.09  21 1.40  57 1.41
  30  0.543  0.105  0.524- 246 1.09  22 1.40  58 1.41
  31  0.043  0.605  0.524- 247 1.09  23 1.40  59 1.41
  32  0.543  0.605  0.524- 248 1.09  24 1.40  60 1.41
  33  0.485  0.433  0.045-  69 1.41  41 1.43  20 1.45
  34  0.985  0.433  0.045-  70 1.41  42 1.43  19 1.45
  35  0.485  0.933  0.045-  71 1.41  43 1.43  18 1.45
  36  0.985  0.933  0.045-  72 1.41  44 1.43  17 1.45
  37  0.485  0.433  0.545-  65 1.41  45 1.43  24 1.45
  38  0.985  0.433  0.545-  66 1.41  46 1.43  23 1.45
  39  0.485  0.933  0.545-  67 1.41  47 1.43  22 1.45
  40  0.985  0.933  0.545-  68 1.41  48 1.43  21 1.45
  41  0.471  0.368  0.093- 249 1.08  49 1.37  33 1.43
  42  0.971  0.368  0.093- 250 1.08  50 1.37  34 1.43
  43  0.471  0.868  0.093- 251 1.08  51 1.37  35 1.43
  44  0.971  0.868  0.093- 252 1.08  52 1.37  36 1.43
  45  0.471  0.368  0.593- 253 1.08  53 1.37  37 1.43
  46  0.971  0.368  0.593- 254 1.08  54 1.37  38 1.43
  47  0.471  0.868  0.593- 255 1.08  55 1.37  39 1.43
  48  0.971  0.868  0.593- 256 1.08  56 1.37  40 1.43
  49  0.499  0.407  0.160- 257 1.08  41 1.37   4 1.43
  50  0.999  0.407  0.160- 258 1.09  42 1.37   3 1.43
  51  0.499  0.907  0.160- 259 1.09  43 1.37   2 1.43
  52  0.999  0.907  0.160- 260 1.09  44 1.37   1 1.43
  53  0.499  0.407  0.660- 261 1.09  45 1.37   8 1.43
  54  0.999  0.407  0.660- 262 1.09  46 1.37   7 1.43
  55  0.499  0.907  0.660- 263 1.09  47 1.37   6 1.43
  56  0.999  0.907  0.660- 264 1.09  48 1.37   5 1.43
  57  0.015  0.067  0.455-  29 1.41  81 1.43  76 1.45
  58  0.515  0.067  0.455-  30 1.41  82 1.43  75 1.45
  59  0.015  0.567  0.455-  31 1.41  83 1.43  74 1.45
  60  0.515  0.567  0.455-  32 1.41  84 1.43  73 1.45
  61  0.015  0.067  0.955-  25 1.41  85 1.43  80 1.45
  62  0.515  0.067  0.955-  26 1.41  86 1.43  79 1.45
  63  0.015  0.567  0.955-  27 1.41  87 1.43  78 1.45
  64  0.515  0.567  0.955-  28 1.41  88 1.43  77 1.45
  65  0.457  0.395  0.476- 265 1.09  73 1.40  37 1.41
  66  0.957  0.395  0.476- 266 1.09  74 1.40  38 1.41
  67  0.457  0.895  0.476- 267 1.09  75 1.40  39 1.41
  68  0.957  0.895  0.476- 268 1.09  76 1.40  40 1.41
  69  0.457  0.395  0.976- 269 1.09  77 1.40  33 1.41
  70  0.957  0.395  0.976- 270 1.09  78 1.40  34 1.41
  71  0.457  0.895  0.976- 271 1.09  79 1.40  35 1.41
  72  0.957  0.895  0.976- 272 1.09  80 1.40  36 1.41
  73  0.470  0.459  0.430-  65 1.40  89 1.43  60 1.45
  74  0.970  0.459  0.430-  66 1.40  90 1.43  59 1.45
  75  0.470  0.959  0.430-  67 1.40  91 1.43  58 1.45
  76  0.970  0.959  0.430-  68 1.40  92 1.43  57 1.45
  77  0.470  0.459  0.930-  69 1.40  93 1.43  64 1.45
  78  0.970  0.459  0.930-  70 1.40  94 1.43  63 1.45
  79  0.470  0.959  0.930-  71 1.40  95 1.43  62 1.45
  80  0.970  0.959  0.930-  72 1.40  96 1.43  61 1.45
  81  0.029  0.132  0.407- 273 1.08  97 1.37  57 1.43
  82  0.529  0.132  0.407- 274 1.08  98 1.37  58 1.43
  83  0.029  0.632  0.407- 275 1.08  99 1.37  59 1.43
  84  0.529  0.632  0.407- 276 1.08 100 1.37  60 1.43
  85  0.029  0.132  0.907- 277 1.08 101 1.37  61 1.43
  86  0.529  0.132  0.907- 278 1.08 102 1.37  62 1.43
  87  0.029  0.632  0.907- 279 1.08 103 1.37  63 1.43
  88  0.529  0.632  0.907- 280 1.08 104 1.37  64 1.43
  89  0.441  0.422  0.359- 281 1.08 105 1.38  73 1.43
  90  0.941  0.422  0.359- 282 1.08 106 1.38  74 1.43
  91  0.441  0.922  0.359- 283 1.08 107 1.38  75 1.43
  92  0.941  0.922  0.359- 284 1.08 108 1.38  76 1.43
  93  0.441  0.422  0.859- 285 1.08 109 1.38  77 1.43
  94  0.941  0.422  0.859- 286 1.08 110 1.38  78 1.43
  95  0.441  0.922  0.859- 287 1.08 111 1.38  79 1.43
  96  0.941  0.922  0.859- 288 1.08 112 1.38  80 1.43
  97  0.001  0.093  0.340- 289 1.09  81 1.37 108 1.43
  98  0.501  0.093  0.340- 290 1.09  82 1.37 107 1.43
  99  0.001  0.593  0.340- 291 1.09  83 1.37 106 1.43
 100  0.501  0.593  0.340- 292 1.09  84 1.37 105 1.43
 101  0.001  0.093  0.840- 293 1.09  85 1.37 112 1.43
 102  0.501  0.093  0.840- 294 1.09  86 1.37 111 1.43
 103  0.001  0.593  0.840- 295 1.09  87 1.37 110 1.43
 104  0.501  0.593  0.840- 296 1.09  88 1.37 109 1.43
 105  0.456  0.487  0.315- 297 1.08  89 1.38 100 1.43
 106  0.956  0.487  0.315- 298 1.08  90 1.38  99 1.43
 107  0.456  0.987  0.315- 299 1.08  91 1.38  98 1.43
 108  0.956  0.987  0.315- 300 1.08  92 1.38  97 1.43
 109  0.456  0.487  0.815- 301 1.08  93 1.38 104 1.43
 110  0.956  0.487  0.815- 302 1.08  94 1.38 103 1.43
 111  0.456  0.987  0.815- 303 1.08  95 1.38 102 1.43
 112  0.956  0.987  0.815- 304 1.08  96 1.38 101 1.43
 113  0.206  0.263  0.315- 305 1.08 129 1.38 209 1.43
 114  0.706  0.263  0.315- 306 1.08 130 1.38 210 1.43
 115  0.206  0.763  0.315- 307 1.08 131 1.38 211 1.43
 116  0.706  0.763  0.315- 308 1.08 132 1.38 212 1.43
 117  0.206  0.263  0.815- 309 1.08 133 1.38 213 1.43
 118  0.706  0.263  0.815- 310 1.08 134 1.38 214 1.43
 119  0.206  0.763  0.815- 311 1.08 135 1.38 215 1.43
 120  0.706  0.763  0.815- 312 1.08 136 1.38 216 1.43
 121  0.294  0.237  0.185- 313 1.08 137 1.38 217 1.43
 122  0.794  0.237  0.185- 314 1.08 138 1.38 218 1.43
 123  0.294  0.737  0.185- 315 1.08 139 1.38 219 1.43
 124  0.794  0.737  0.185- 316 1.08 140 1.38 220 1.43
 125  0.294  0.237  0.685- 317 1.08 141 1.38 221 1.43
 126  0.794  0.237  0.685- 318 1.08 142 1.38 222 1.43
 127  0.294  0.737  0.685- 319 1.08 143 1.38 223 1.43
 128  0.794  0.737  0.685- 320 1.08 144 1.38 224 1.43
 129  0.191  0.328  0.359- 321 1.08 113 1.38 145 1.43
 130  0.691  0.328  0.359- 322 1.08 114 1.38 146 1.43
 131  0.191  0.828  0.359- 323 1.08 115 1.38 147 1.43
 132  0.691  0.828  0.359- 324 1.08 116 1.38 148 1.43
 133  0.191  0.328  0.859- 325 1.08 117 1.38 149 1.43
 134  0.691  0.328  0.859- 326 1.08 118 1.38 150 1.43
 135  0.191  0.828  0.859- 327 1.08 119 1.38 151 1.43
 136  0.691  0.828  0.859- 328 1.08 120 1.38 152 1.43
 137  0.309  0.172  0.141- 329 1.08 121 1.38 153 1.43
 138  0.809  0.172  0.141- 330 1.08 122 1.38 154 1.43
 139  0.309  0.672  0.141- 331 1.08 123 1.38 155 1.43
 140  0.809  0.672  0.141- 332 1.08 124 1.38 156 1.43
 141  0.309  0.172  0.641- 333 1.08 125 1.38 157 1.43
 142  0.809  0.172  0.641- 334 1.08 126 1.38 158 1.43
 143  0.309  0.672  0.641- 335 1.08 127 1.38 159 1.43
 144  0.809  0.672  0.641- 336 1.08 128 1.38 160 1.43
 145  0.220  0.291  0.430- 161 1.40 129 1.43 177 1.45
 146  0.720  0.291  0.430- 162 1.40 130 1.43 178 1.45
 147  0.220  0.791  0.430- 163 1.40 131 1.43 179 1.45
 148  0.720  0.791  0.430- 164 1.40 132 1.43 180 1.45
 149  0.220  0.291  0.930- 165 1.40 133 1.43 181 1.45
 150  0.720  0.291  0.930- 166 1.40 134 1.43 182 1.45
 151  0.220  0.791  0.930- 167 1.40 135 1.43 183 1.45
 152  0.720  0.791  0.930- 168 1.40 136 1.43 184 1.45
 153  0.280  0.209  0.070- 169 1.40 137 1.43 185 1.45
 154  0.780  0.209  0.070- 170 1.40 138 1.43 186 1.45
 155  0.280  0.709  0.070- 171 1.40 139 1.43 187 1.45
 156  0.780  0.709  0.070- 172 1.40 140 1.43 188 1.45
 157  0.280  0.209  0.570- 173 1.40 141 1.43 189 1.45
 158  0.780  0.209  0.570- 174 1.40 142 1.43 190 1.45
 159  0.280  0.709  0.570- 175 1.40 143 1.43 191 1.45
 160  0.780  0.709  0.570- 176 1.40 144 1.43 192 1.45
 161  0.207  0.355  0.476- 337 1.09 145 1.40 189 1.41
 162  0.707  0.355  0.476- 338 1.09 146 1.40 190 1.41
 163  0.207  0.855  0.476- 339 1.09 147 1.40 191 1.41
 164  0.707  0.855  0.476- 340 1.09 148 1.40 192 1.41
 165  0.207  0.355  0.976- 341 1.09 149 1.40 185 1.41
 166  0.707  0.355  0.976- 342 1.09 150 1.40 186 1.41
 167  0.207  0.855  0.976- 343 1.09 151 1.40 187 1.41
 168  0.707  0.855  0.976- 344 1.09 152 1.40 188 1.41
 169  0.293  0.145  0.024- 345 1.09 153 1.40 181 1.41
 170  0.793  0.145  0.024- 346 1.09 154 1.40 182 1.41
 171  0.293  0.645  0.024- 347 1.09 155 1.40 183 1.41
 172  0.793  0.645  0.024- 348 1.09 156 1.40 184 1.41
 173  0.293  0.145  0.524- 349 1.09 157 1.40 177 1.41
 174  0.793  0.145  0.524- 350 1.09 158 1.40 178 1.41
 175  0.293  0.645  0.524- 351 1.09 159 1.40 179 1.41
 176  0.793  0.645  0.524- 352 1.09 160 1.40 180 1.41
 177  0.265  0.183  0.455- 173 1.41 193 1.43 145 1.45
 178  0.765  0.183  0.455- 174 1.41 194 1.43 146 1.45
 179  0.265  0.683  0.455- 175 1.41 195 1.43 147 1.45
 180  0.765  0.683  0.455- 176 1.41 196 1.43 148 1.45
 181  0.265  0.183  0.955- 169 1.41 197 1.43 149 1.45
 182  0.765  0.183  0.955- 170 1.41 198 1.43 150 1.45
 183  0.265  0.683  0.955- 171 1.41 199 1.43 151 1.45
 184  0.765  0.683  0.955- 172 1.41 200 1.43 152 1.45
 185  0.235  0.317  0.045- 165 1.41 201 1.43 153 1.45
 186  0.735  0.317  0.045- 166 1.41 202 1.43 154 1.45
 187  0.235  0.817  0.045- 167 1.41 203 1.43 155 1.45
 188  0.735  0.817  0.045- 168 1.41 204 1.43 156 1.45
 189  0.235  0.317  0.545- 161 1.41 205 1.43 157 1.45
 190  0.735  0.317  0.545- 162 1.41 206 1.43 158 1.45
 191  0.235  0.817  0.545- 163 1.41 207 1.43 159 1.45
 192  0.735  0.817  0.545- 164 1.41 208 1.43 160 1.45
 193  0.279  0.118  0.407- 353 1.08 209 1.37 177 1.43
 194  0.779  0.118  0.407- 354 1.08 210 1.37 178 1.43
 195  0.279  0.618  0.407- 355 1.08 211 1.37 179 1.43
 196  0.779  0.618  0.407- 356 1.08 212 1.37 180 1.43
 197  0.279  0.118  0.907- 357 1.08 213 1.37 181 1.43
 198  0.779  0.118  0.907- 358 1.08 214 1.37 182 1.43
 199  0.279  0.618  0.907- 359 1.08 215 1.37 183 1.43
 200  0.779  0.618  0.907- 360 1.08 216 1.37 184 1.43
 201  0.221  0.382  0.093- 361 1.08 217 1.37 185 1.43
 202  0.721  0.382  0.093- 362 1.08 218 1.37 186 1.43
 203  0.221  0.882  0.093- 363 1.08 219 1.37 187 1.43
 204  0.721  0.882  0.093- 364 1.08 220 1.37 188 1.43
 205  0.221  0.382  0.593- 365 1.08 221 1.37 189 1.43
 206  0.721  0.382  0.593- 366 1.08 222 1.37 190 1.43
 207  0.221  0.882  0.593- 367 1.08 223 1.37 191 1.43
 208  0.721  0.882  0.593- 368 1.08 224 1.37 192 1.43
 209  0.251  0.157  0.340- 369 1.09 193 1.37 113 1.43
 210  0.751  0.157  0.340- 370 1.09 194 1.37 114 1.43
 211  0.251  0.657  0.340- 371 1.09 195 1.37 115 1.43
 212  0.751  0.657  0.340- 372 1.09 196 1.37 116 1.43
 213  0.251  0.157  0.840- 373 1.09 197 1.37 117 1.43
 214  0.751  0.157  0.840- 374 1.09 198 1.37 118 1.43
 215  0.251  0.657  0.840- 375 1.09 199 1.37 119 1.43
 216  0.751  0.657  0.840- 376 1.09 200 1.37 120 1.43
 217  0.249  0.343  0.160- 377 1.09 201 1.37 121 1.43
 218  0.749  0.343  0.160- 378 1.09 202 1.37 122 1.43
 219  0.249  0.843  0.160- 379 1.09 203 1.37 123 1.43
 220  0.749  0.843  0.160- 380 1.09 204 1.37 124 1.43
 221  0.249  0.343  0.660- 381 1.09 205 1.37 125 1.43
 222  0.749  0.343  0.660- 382 1.09 206 1.37 126 1.43
 223  0.249  0.843  0.660- 383 1.09 207 1.37 127 1.43
 224  0.749  0.843  0.660- 384 1.09 208 1.37 128 1.43
 225  0.066  0.042  0.239-   1 1.08
 226  0.566  0.042  0.239-   2 1.08
 227  0.066  0.542  0.239-   3 1.08
 228  0.566  0.542  0.239-   4 1.08
 229  0.066  0.042  0.739-   5 1.08
 230  0.566  0.042  0.739-   6 1.08
 231  0.066  0.542  0.739-   7 1.08
 232  0.566  0.542  0.739-   8 1.08
 233  0.092  0.158  0.160-   9 1.08
 234  0.592  0.158  0.160-  10 1.08
 235  0.092  0.658  0.160-  11 1.08
 236  0.592  0.658  0.160-  12 1.08
 237  0.092  0.158  0.660-  13 1.08
 238  0.592  0.158  0.660-  14 1.08
 239  0.092  0.658  0.660-  15 1.08
 240  0.592  0.658  0.660-  16 1.08
 241  0.076  0.186  0.043-  25 1.09
 242  0.576  0.186  0.043-  26 1.09
 243  0.076  0.686  0.043-  27 1.09
 244  0.576  0.686  0.043-  28 1.09
 245  0.076  0.186  0.543-  29 1.09
 246  0.576  0.186  0.543-  30 1.09
 247  0.076  0.686  0.543-  31 1.09
 248  0.576  0.686  0.543-  32 1.09
 249  0.438  0.287  0.074-  41 1.08
 250  0.938  0.287  0.074-  42 1.08
 251  0.438  0.787  0.074-  43 1.08
 252  0.938  0.787  0.074-  44 1.08
 253  0.438  0.287  0.574-  45 1.08
 254  0.938  0.287  0.574-  46 1.08
 255  0.438  0.787  0.574-  47 1.08
 256  0.938  0.787  0.574-  48 1.08
 257  0.488  0.357  0.195-  49 1.08
 258  0.988  0.357  0.195-  50 1.09
 259  0.488  0.857  0.195-  51 1.09
 260  0.988  0.857  0.195-  52 1.09
 261  0.488  0.357  0.695-  53 1.09
 262  0.988  0.357  0.695-  54 1.09
 263  0.488  0.857  0.695-  55 1.09
 264  0.988  0.857  0.695-  56 1.09
 265  0.424  0.314  0.457-  65 1.09
 266  0.924  0.314  0.457-  66 1.09
 267  0.424  0.814  0.457-  67 1.09
 268  0.924  0.814  0.457-  68 1.09
 269  0.424  0.314  0.957-  69 1.09
 270  0.924  0.314  0.957-  70 1.09
 271  0.424  0.814  0.957-  71 1.09
 272  0.924  0.814  0.957-  72 1.09
 273  0.062  0.213  0.426-  81 1.08
 274  0.562  0.213  0.426-  82 1.08
 275  0.062  0.713  0.426-  83 1.08
 276  0.562  0.713  0.426-  84 1.08
 277  0.062  0.213  0.926-  85 1.08
 278  0.562  0.213  0.926-  86 1.08
 279  0.062  0.713  0.926-  87 1.08
 280  0.562  0.713  0.926-  88 1.08
 281  0.408  0.342  0.340-  89 1.08
 282  0.908  0.342  0.340-  90 1.08
 283  0.408  0.842  0.340-  91 1.08
 284  0.908  0.842  0.340-  92 1.08
 285  0.408  0.342  0.840-  93 1.08
 286  0.908  0.342  0.840-  94 1.08
 287  0.408  0.842  0.840-  95 1.08
 288  0.908  0.842  0.840-  96 1.08
 289  0.012  0.143  0.305-  97 1.09
 290  0.512  0.143  0.305-  98 1.09
 291  0.012  0.643  0.305-  99 1.09
 292  0.512  0.643  0.305- 100 1.09
 293  0.012  0.143  0.805- 101 1.09
 294  0.512  0.143  0.805- 102 1.09
 295  0.012  0.643  0.805- 103 1.09
 296  0.512  0.643  0.805- 104 1.09
 297  0.434  0.458  0.261- 105 1.08
 298  0.934  0.458  0.261- 106 1.08
 299  0.434  0.958  0.261- 107 1.08
 300  0.934  0.958  0.261- 108 1.08
 301  0.434  0.458  0.761- 109 1.08
 302  0.934  0.458  0.761- 110 1.08
 303  0.434  0.958  0.761- 111 1.08
 304  0.934  0.958  0.761- 112 1.08
 305  0.184  0.292  0.261- 113 1.08
 306  0.684  0.292  0.261- 114 1.08
 307  0.184  0.792  0.261- 115 1.08
 308  0.684  0.792  0.261- 116 1.08
 309  0.184  0.292  0.761- 117 1.08
 310  0.684  0.292  0.761- 118 1.08
 311  0.184  0.792  0.761- 119 1.08
 312  0.684  0.792  0.761- 120 1.08
 313  0.316  0.208  0.239- 121 1.08
 314  0.816  0.208  0.239- 122 1.08
 315  0.316  0.708  0.239- 123 1.08
 316  0.816  0.708  0.239- 124 1.08
 317  0.316  0.208  0.739- 125 1.08
 318  0.816  0.208  0.739- 126 1.08
 319  0.316  0.708  0.739- 127 1.08
 320  0.816  0.708  0.739- 128 1.08
 321  0.158  0.408  0.340- 129 1.08
 322  0.658  0.408  0.340- 130 1.08
 323  0.158  0.908  0.340- 131 1.08
 324  0.658  0.908  0.340- 132 1.08
 325  0.158  0.408  0.840- 133 1.08
 326  0.658  0.408  0.840- 134 1.08
 327  0.158  0.908  0.840- 135 1.08
 328  0.658  0.908  0.840- 136 1.08
 329  0.342  0.092  0.160- 137 1.08
 330  0.842  0.092  0.160- 138 1.08
 331  0.342  0.592  0.160- 139 1.08
 332  0.842  0.592  0.160- 140 1.08
 333  0.342  0.092  0.660- 141 1.08
 334  0.842  0.092  0.660- 142 1.08
 335  0.342  0.592  0.660- 143 1.08
 336  0.842  0.592  0.660- 144 1.08
 337  0.174  0.436  0.457- 161 1.09
 338  0.674  0.436  0.457- 162 1.09
 339  0.174  0.936  0.457- 163 1.09
 340  0.674  0.936  0.457- 164 1.09
 341  0.174  0.436  0.957- 165 1.09
 342  0.674  0.436  0.957- 166 1.09
 343  0.174  0.936  0.957- 167 1.09
 344  0.674  0.936  0.957- 168 1.09
 345  0.326  0.064  0.043- 169 1.09
 346  0.826  0.064  0.043- 170 1.09
 347  0.326  0.564  0.043- 171 1.09
 348  0.826  0.564  0.043- 172 1.09
 349  0.326  0.064  0.543- 173 1.09
 350  0.826  0.064  0.543- 174 1.09
 351  0.326  0.564  0.543- 175 1.09
 352  0.826  0.564  0.543- 176 1.09
 353  0.312  0.037  0.426- 193 1.08
 354  0.812  0.037  0.426- 194 1.08
 355  0.312  0.537  0.426- 195 1.08
 356  0.812  0.537  0.426- 196 1.08
 357  0.312  0.037  0.926- 197 1.08
 358  0.812  0.037  0.926- 198 1.08
 359  0.312  0.537  0.926- 199 1.08
 360  0.812  0.537  0.926- 200 1.08
 361  0.188  0.463  0.074- 201 1.08
 362  0.688  0.463  0.074- 202 1.08
 363  0.188  0.963  0.074- 203 1.08
 364  0.688  0.963  0.074- 204 1.08
 365  0.188  0.463  0.574- 205 1.08
 366  0.688  0.463  0.574- 206 1.08
 367  0.188  0.963  0.574- 207 1.08
 368  0.688  0.963  0.574- 208 1.08
 369  0.262  0.107  0.305- 209 1.09
 370  0.762  0.107  0.305- 210 1.09
 371  0.262  0.607  0.305- 211 1.09
 372  0.762  0.607  0.305- 212 1.09
 373  0.262  0.107  0.805- 213 1.09
 374  0.762  0.107  0.805- 214 1.09
 375  0.262  0.607  0.805- 215 1.09
 376  0.762  0.607  0.805- 216 1.09
 377  0.238  0.393  0.195- 217 1.09
 378  0.738  0.393  0.195- 218 1.09
 379  0.238  0.893  0.195- 219 1.09
 380  0.738  0.893  0.195- 220 1.09
 381  0.238  0.393  0.695- 221 1.09
 382  0.738  0.393  0.695- 222 1.09
 383  0.238  0.893  0.695- 223 1.09
 384  0.738  0.893  0.695- 224 1.09

  LATTYP: Found a simple monoclinic cell.
 ALAT       =    17.1211668093
 B/A-ratio  =     0.7042133215
 C/A-ratio  =     1.0986560629
 COS(beta)  =    -0.2394424892
  
  Lattice vectors:
  
 A1 = (  17.1200062600,   0.0000000000,   0.1993453543)
 A2 = (   0.0000000000, -12.0569537469,   0.0000000000)
 A3 = (  -4.2910324173,   0.0000000000, -18.3142960052)


Analysis of symmetry for initial positions (statically):
=====================================================================
 Subroutine PRICEL returns:
 Original cell was already a primitive cell.
 

 Routine SETGRP: Setting up the symmetry group for a 
 simple monoclinic supercell.


 Subroutine GETGRP returns: Found  1 space group operations
 (whereof  1 operations were pure point group operations)
 out of a pool of  4 trial point group operations.


The static configuration has the point symmetry C_1 .


Analysis of symmetry for dynamics (positions and initial velocities):
=====================================================================
 Subroutine PRICEL returns:
 Original cell was already a primitive cell.
 

 Routine SETGRP: Setting up the symmetry group for a 
 simple monoclinic supercell.


 Subroutine GETGRP returns: Found  1 space group operations
 (whereof  1 operations were pure point group operations)
 out of a pool of  4 trial point group operations.


The dynamic configuration has the point symmetry C_1 .


 Subroutine INISYM returns: Found  1 space group operations
 (whereof  1 operations are pure point group operations),
 and found     1 'primitive' translations


----------------------------------------------------------------------------------------

                                     Primitive cell                                     

  volume of cell :    3770.0342

  direct lattice vectors                    reciprocal lattice vectors
    17.120006260  0.000000000  0.199345354     0.057933459 -0.000000000  0.041028366
     0.000000000 12.056953747  0.000000000     0.000000000  0.082939689 -0.000000000
   -12.828973843  0.000000000 18.114950651    -0.000637527  0.000000000  0.054751526

  length of vectors
    17.121166809 12.056953747 22.197612641     0.070990229  0.082939689  0.054755237

  position of ions in fractional coordinates (direct lattice)
     0.043832900  0.013019794  0.185139481
     0.543832900  0.013019794  0.185139481
     0.043832900  0.513019794  0.185139481
     0.543832900  0.513019794  0.185139481
     0.043832900  0.013019794  0.685139481
     0.543832900  0.013019794  0.685139481
     0.043832900  0.513019794  0.685139481
     0.543832900  0.513019794  0.685139481
     0.058661281  0.077727965  0.141492255
     0.558661281  0.077727965  0.141492255
     0.058661281  0.577727965  0.141492255
     0.558661281  0.577727965  0.141492255
     0.058661281  0.077727965  0.641492255
     0.558661281  0.077727965  0.641492255
     0.058661281  0.577727965  0.641492255
     0.558661281  0.577727965  0.641492255
     0.029539598  0.040871935  0.070238043
     0.529539598  0.040871935  0.070238043
     0.029539598  0.540871935  0.070238043
     0.529539598  0.540871935  0.070238043
     0.029539598  0.040871935  0.570238043
     0.529539598  0.040871935  0.570238043
     0.029539598  0.540871935  0.570238043
     0.529539598  0.540871935  0.570238043
     0.042943785  0.105380138  0.024137726
     0.542943785  0.105380138  0.024137726
     0.042943785  0.605380138  0.024137726
     0.542943785  0.605380138  0.024137726
     0.042943785  0.105380138  0.524137726
     0.542943785  0.105380138  0.524137726
     0.042943785  0.605380138  0.524137726
     0.542943785  0.605380138  0.524137726
     0.485252570  0.432584250  0.045335384
     0.985252570  0.432584250  0.045335384
     0.485252570  0.932584250  0.045335384
     0.985252570  0.932584250  0.045335384
     0.485252570  0.432584250  0.545335384
     0.985252570  0.432584250  0.545335384
     0.485252570  0.932584250  0.545335384
     0.985252570  0.932584250  0.545335384
     0.471448415  0.367986314  0.092627345
     0.971448415  0.367986314  0.092627345
     0.471448415  0.867986314  0.092627345
     0.971448415  0.867986314  0.092627345
     0.471448415  0.367986314  0.592627345
     0.971448415  0.367986314  0.592627345
     0.471448415  0.867986314  0.592627345
     0.971448415  0.867986314  0.592627345
     0.499318436  0.407029617  0.160274996
     0.999318436  0.407029617  0.160274996
     0.499318436  0.907029617  0.160274996
     0.999318436  0.907029617  0.160274996
     0.499318436  0.407029617  0.660274996
     0.999318436  0.407029617  0.660274996
     0.499318436  0.907029617  0.660274996
     0.999318436  0.907029617  0.660274996
     0.014747429  0.067415750  0.454664615
     0.514747429  0.067415750  0.454664615
     0.014747429  0.567415750  0.454664615
     0.514747429  0.567415750  0.454664615
     0.014747429  0.067415750  0.954664615
     0.514747429  0.067415750  0.954664615
     0.014747429  0.567415750  0.954664615
     0.514747429  0.567415750  0.954664615
     0.457056215  0.394619862  0.475862273
     0.957056215  0.394619862  0.475862273
     0.457056215  0.894619862  0.475862273
     0.957056215  0.894619862  0.475862273
     0.457056215  0.394619862  0.975862273
     0.957056215  0.394619862  0.975862273
     0.457056215  0.894619862  0.975862273
     0.957056215  0.894619862  0.975862273
     0.470460402  0.459128066  0.429761956
     0.970460402  0.459128066  0.429761956
     0.470460402  0.959128066  0.429761956
     0.970460402  0.959128066  0.429761956
     0.470460402  0.459128066  0.929761956
     0.970460402  0.459128066  0.929761956
     0.470460402  0.959128066  0.929761956
     0.970460402  0.959128066  0.929761956
     0.028551585  0.132013687  0.407372654
     0.528551585  0.132013687  0.407372654
     0.028551585  0.632013687  0.407372654
     0.528551585  0.632013687  0.407372654
     0.028551585  0.132013687  0.907372654
     0.528551585  0.132013687  0.907372654
     0.028551585  0.632013687  0.907372654
     0.528551585  0.632013687  0.907372654
     0.441338719  0.422272035  0.358507744
     0.941338719  0.422272035  0.358507744
     0.441338719  0.922272035  0.358507744
     0.941338719  0.922272035  0.358507744
     0.441338719  0.422272035  0.858507744
     0.941338719  0.422272035  0.858507744
     0.441338719  0.922272035  0.858507744
     0.941338719  0.922272035  0.858507744
     0.000681564  0.092970383  0.339725003
     0.500681564  0.092970383  0.339725003
     0.000681564  0.592970383  0.339725003
     0.500681564  0.592970383  0.339725003
     0.000681564  0.092970383  0.839725003
     0.500681564  0.092970383  0.839725003
     0.000681564  0.592970383  0.839725003
     0.500681564  0.592970383  0.839725003
     0.456167100  0.486980206  0.314860518
     0.956167100  0.486980206  0.314860518
     0.456167100  0.986980206  0.314860518
     0.956167100  0.986980206  0.314860518
     0.456167100  0.486980206  0.814860518
     0.956167100  0.486980206  0.814860518
     0.456167100  0.986980206  0.814860518
     0.956167100  0.986980206  0.814860518
     0.206167070  0.263019851  0.314860505
     0.706167070  0.263019851  0.314860505
     0.206167070  0.763019851  0.314860505
     0.706167070  0.763019851  0.314860505
     0.206167070  0.263019851  0.814860505
     0.706167070  0.263019851  0.814860505
     0.206167070  0.763019851  0.814860505
     0.706167070  0.763019851  0.814860505
     0.293832929  0.236980150  0.185139495
     0.793832929  0.236980150  0.185139495
     0.293832929  0.736980150  0.185139495
     0.793832929  0.736980150  0.185139495
     0.293832929  0.236980150  0.685139495
     0.793832929  0.236980150  0.685139495
     0.293832929  0.736980150  0.685139495
     0.793832929  0.736980150  0.685139495
     0.191338726  0.327728022  0.358507752
     0.691338726  0.327728022  0.358507752
     0.191338726  0.827728022  0.358507752
     0.691338726  0.827728022  0.358507752
     0.191338726  0.327728022  0.858507752
     0.691338726  0.327728022  0.858507752
     0.191338726  0.827728022  0.858507752
     0.691338726  0.827728022  0.858507752
     0.308661274  0.172271981  0.141492248
     0.808661274  0.172271981  0.141492248
     0.308661274  0.672271981  0.141492248
     0.808661274  0.672271981  0.141492248
     0.308661274  0.172271981  0.641492248
     0.808661274  0.172271981  0.641492248
     0.308661274  0.672271981  0.641492248
     0.808661274  0.672271981  0.641492248
     0.220460413  0.290871982  0.429761976
     0.720460413  0.290871982  0.429761976
     0.220460413  0.790871982  0.429761976
     0.720460413  0.790871982  0.429761976
     0.220460413  0.290871982  0.929761976
     0.720460413  0.290871982  0.929761976
     0.220460413  0.790871982  0.929761976
     0.720460413  0.790871982  0.929761976
     0.279539587  0.209128022  0.070238024
     0.779539587  0.209128022  0.070238024
     0.279539587  0.709128022  0.070238024
     0.779539587  0.709128022  0.070238024
     0.279539587  0.209128022  0.570238024
     0.779539587  0.209128022  0.570238024
     0.279539587  0.709128022  0.570238024
     0.779539587  0.709128022  0.570238024
     0.207056246  0.355380155  0.475862306
     0.707056246  0.355380155  0.475862306
     0.207056246  0.855380155  0.475862306
     0.707056246  0.855380155  0.475862306
     0.207056246  0.355380155  0.975862306
     0.707056246  0.355380155  0.975862306
     0.207056246  0.855380155  0.975862306
     0.707056246  0.855380155  0.975862306
     0.292943754  0.144619848  0.024137694
     0.792943754  0.144619848  0.024137694
     0.292943754  0.644619848  0.024137694
     0.792943754  0.644619848  0.024137694
     0.292943754  0.144619848  0.524137694
     0.792943754  0.144619848  0.524137694
     0.292943754  0.644619848  0.524137694
     0.792943754  0.644619848  0.524137694
     0.264747419  0.182584280  0.454664605
     0.764747419  0.182584280  0.454664605
     0.264747419  0.682584280  0.454664605
     0.764747419  0.682584280  0.454664605
     0.264747419  0.182584280  0.954664605
     0.764747419  0.182584280  0.954664605
     0.264747419  0.682584280  0.954664605
     0.764747419  0.682584280  0.954664605
     0.235252582  0.317415723  0.045335395
     0.735252582  0.317415723  0.045335395
     0.235252582  0.817415723  0.045335395
     0.735252582  0.817415723  0.045335395
     0.235252582  0.317415723  0.545335395
     0.735252582  0.317415723  0.545335395
     0.235252582  0.817415723  0.545335395
     0.735252582  0.817415723  0.545335395
     0.278551535  0.117986336  0.407372624
     0.778551535  0.117986336  0.407372624
     0.278551535  0.617986336  0.407372624
     0.778551535  0.617986336  0.407372624
     0.278551535  0.117986336  0.907372624
     0.778551535  0.117986336  0.907372624
     0.278551535  0.617986336  0.907372624
     0.778551535  0.617986336  0.907372624
     0.221448465  0.382013666  0.092627375
     0.721448465  0.382013666  0.092627375
     0.221448465  0.882013666  0.092627375
     0.721448465  0.882013666  0.092627375
     0.221448465  0.382013666  0.592627375
     0.721448465  0.382013666  0.592627375
     0.221448465  0.882013666  0.592627375
     0.721448465  0.882013666  0.592627375
     0.250681503  0.157029666  0.339724969
     0.750681503  0.157029666  0.339724969
     0.250681503  0.657029666  0.339724969
     0.750681503  0.657029666  0.339724969
     0.250681503  0.157029666  0.839724969
     0.750681503  0.157029666  0.839724969
     0.250681503  0.657029666  0.839724969
     0.750681503  0.657029666  0.839724969
     0.249318497  0.342970336  0.160275031
     0.749318497  0.342970336  0.160275031
     0.249318497  0.842970336  0.160275031
     0.749318497  0.842970336  0.160275031
     0.249318497  0.342970336  0.660275031
     0.749318497  0.342970336  0.660275031
     0.249318497  0.842970336  0.660275031
     0.749318497  0.842970336  0.660275031
     0.066331177  0.042398451  0.238887947
     0.566331177  0.042398451  0.238887947
     0.066331177  0.542398451  0.238887947
     0.566331177  0.542398451  0.238887947
     0.066331177  0.042398451  0.738887947
     0.566331177  0.042398451  0.738887947
     0.066331177  0.542398451  0.738887947
     0.566331177  0.542398451  0.738887947
     0.092296045  0.158305515  0.160189358
     0.592296045  0.158305515  0.160189358
     0.092296045  0.658305515  0.160189358
     0.592296045  0.658305515  0.160189358
     0.092296045  0.158305515  0.660189358
     0.592296045  0.158305515  0.660189358
     0.092296045  0.658305515  0.660189358
     0.592296045  0.658305515  0.660189358
     0.076424351  0.186149071  0.042808471
     0.576424351  0.186149071  0.042808471
     0.076424351  0.686149071  0.042808471
     0.576424351  0.686149071  0.042808471
     0.076424351  0.186149071  0.542808471
     0.576424351  0.186149071  0.542808471
     0.076424351  0.686149071  0.542808471
     0.576424351  0.686149071  0.542808471
     0.438395386  0.287275452  0.074027293
     0.938395386  0.287275452  0.074027293
     0.438395386  0.787275452  0.074027293
     0.938395386  0.787275452  0.074027293
     0.438395386  0.287275452  0.574027293
     0.938395386  0.287275452  0.574027293
     0.438395386  0.787275452  0.574027293
     0.938395386  0.787275452  0.574027293
     0.487898056  0.356858005  0.194746026
     0.987898056  0.356858005  0.195196526
     0.487898056  0.856858005  0.195196526
     0.987898056  0.856858005  0.195196526
     0.487898056  0.356858005  0.695196526
     0.987898056  0.356858005  0.695196526
     0.487898056  0.856858005  0.695196526
     0.987898056  0.856858005  0.695196526
     0.423575648  0.313850929  0.457191528
     0.923575648  0.313850929  0.457191528
     0.423575648  0.813850929  0.457191528
     0.923575648  0.813850929  0.457191528
     0.423575648  0.313850929  0.957191528
     0.923575648  0.313850929  0.957191528
     0.423575648  0.813850929  0.957191528
     0.923575648  0.813850929  0.957191528
     0.061604613  0.212724548  0.425972706
     0.561604613  0.212724548  0.425972706
     0.061604613  0.712724548  0.425972706
     0.561604613  0.712724548  0.425972706
     0.061604613  0.212724548  0.925972706
     0.561604613  0.212724548  0.925972706
     0.061604613  0.712724548  0.925972706
     0.561604613  0.712724548  0.925972706
     0.407703955  0.341694486  0.339810641
     0.907703955  0.341694486  0.339810641
     0.407703955  0.841694486  0.339810641
     0.907703955  0.841694486  0.339810641
     0.407703955  0.341694486  0.839810641
     0.907703955  0.341694486  0.839810641
     0.407703955  0.841694486  0.839810641
     0.907703955  0.841694486  0.839810641
     0.012101945  0.143141995  0.304803473
     0.512101945  0.143141995  0.304803473
     0.012101945  0.643141995  0.304803473
     0.512101945  0.643141995  0.304803473
     0.012101945  0.143141995  0.804803473
     0.512101945  0.143141995  0.804803473
     0.012101945  0.643141995  0.804803473
     0.512101945  0.643141995  0.804803473
     0.433668824  0.457601549  0.261112052
     0.933668824  0.457601549  0.261112052
     0.433668824  0.957601549  0.261112052
     0.933668824  0.957601549  0.261112052
     0.433668824  0.457601549  0.761112052
     0.933668824  0.457601549  0.761112052
     0.433668824  0.957601549  0.761112052
     0.933668824  0.957601549  0.761112052
     0.183668780  0.292398527  0.261112042
     0.683668780  0.292398527  0.261112042
     0.183668780  0.792398527  0.261112042
     0.683668780  0.792398527  0.261112042
     0.183668780  0.292398527  0.761112042
     0.683668780  0.292398527  0.761112042
     0.183668780  0.792398527  0.761112042
     0.683668780  0.792398527  0.761112042
     0.316331220  0.207601475  0.238887958
     0.816331220  0.207601475  0.238887958
     0.316331220  0.707601475  0.238887958
     0.816331220  0.707601475  0.238887958
     0.316331220  0.207601475  0.738887958
     0.816331220  0.207601475  0.738887958
     0.316331220  0.707601475  0.738887958
     0.816331220  0.707601475  0.738887958
     0.157703962  0.408305575  0.339810668
     0.657703962  0.408305575  0.339810668
     0.157703962  0.908305575  0.339810668
     0.657703962  0.908305575  0.339810668
     0.157703962  0.408305575  0.839810668
     0.657703962  0.408305575  0.839810668
     0.157703962  0.908305575  0.839810668
     0.657703962  0.908305575  0.839810668
     0.342296038  0.091694427  0.160189331
     0.842296038  0.091694427  0.160189331
     0.342296038  0.591694427  0.160189331
     0.842296038  0.591694427  0.160189331
     0.342296038  0.091694427  0.660189331
     0.842296038  0.091694427  0.660189331
     0.342296038  0.591694427  0.660189331
     0.842296038  0.591694427  0.660189331
     0.173575674  0.436149093  0.457191573
     0.673575674  0.436149093  0.457191573
     0.173575674  0.936149093  0.457191573
     0.673575674  0.936149093  0.457191573
     0.173575674  0.436149093  0.957191573
     0.673575674  0.436149093  0.957191573
     0.173575674  0.936149093  0.957191573
     0.673575674  0.936149093  0.957191573
     0.326424326  0.063850910  0.042808427
     0.826424326  0.063850910  0.042808427
     0.326424326  0.563850910  0.042808427
     0.826424326  0.563850910  0.042808427
     0.326424326  0.063850910  0.542808427
     0.826424326  0.063850910  0.542808427
     0.326424326  0.563850910  0.542808427
     0.826424326  0.563850910  0.542808427
     0.311604572  0.037275473  0.425972680
     0.811604572  0.037275473  0.425972680
     0.311604572  0.537275473  0.425972680
     0.811604572  0.537275473  0.425972680
     0.311604572  0.037275473  0.925972680
     0.811604572  0.037275473  0.925972680
     0.311604572  0.537275473  0.925972680
     0.811604572  0.537275473  0.925972680
     0.188395429  0.462724530  0.074027320
     0.688395429  0.462724530  0.074027320
     0.188395429  0.962724530  0.074027320
     0.688395429  0.962724530  0.074027320
     0.188395429  0.462724530  0.574027320
     0.688395429  0.462724530  0.574027320
     0.188395429  0.962724530  0.574027320
     0.688395429  0.962724530  0.574027320
     0.262101881  0.106858044  0.304803439
     0.762101881  0.106858044  0.304803439
     0.262101881  0.606858044  0.304803439
     0.762101881  0.606858044  0.304803439
     0.262101881  0.106858044  0.804803439
     0.762101881  0.106858044  0.804803439
     0.262101881  0.606858044  0.804803439
     0.762101881  0.606858044  0.804803439
     0.237898119  0.393141958  0.195196561
     0.737898119  0.393141958  0.195196561
     0.237898119  0.893141958  0.195196561
     0.737898119  0.893141958  0.195196561
     0.237898119  0.393141958  0.695196561
     0.737898119  0.393141958  0.695196561
     0.237898119  0.893141958  0.695196561
     0.737898119  0.893141958  0.695196561

  ion indices of the primitive-cell ions
   primitive index   ion index
                 1           1
                 2           2
                 3           3
                 4           4
                 5           5
                 6           6
                 7           7
                 8           8
                 9           9
                10          10
                11          11
                12          12
                13          13
                14          14
                15          15
                16          16
                17          17
                18          18
                19          19
                20          20
                21          21
                22          22
                23          23
                24          24
                25          25
                26          26
                27          27
                28          28
                29          29
                30          30
                31          31
                32          32
                33          33
                34          34
                35          35
                36          36
                37          37
                38          38
                39          39
                40          40
                41          41
                42          42
                43          43
                44          44
                45          45
                46          46
                47          47
                48          48
                49          49
                50          50
                51          51
                52          52
                53          53
                54          54
                55          55
                56          56
                57          57
                58          58
                59          59
                60          60
                61          61
                62          62
                63          63
                64          64
                65          65
                66          66
                67          67
                68          68
                69          69
                70          70
                71          71
                72          72
                73          73
                74          74
                75          75
                76          76
                77          77
                78          78
                79          79
                80          80
                81          81
                82          82
                83          83
                84          84
                85          85
                86          86
                87          87
                88          88
                89          89
                90          90
                91          91
                92          92
                93          93
                94          94
                95          95
                96          96
                97          97
                98          98
                99          99
               100         100
               101         101
               102         102
               103         103
               104         104
               105         105
               106         106
               107         107
               108         108
               109         109
               110         110
               111         111
               112         112
               113         113
               114         114
               115         115
               116         116
               117         117
               118         118
               119         119
               120         120
               121         121
               122         122
               123         123
               124         124
               125         125
               126         126
               127         127
               128         128
               129         129
               130         130
               131         131
               132         132
               133         133
               134         134
               135         135
               136         136
               137         137
               138         138
               139         139
               140         140
               141         141
               142         142
               143         143
               144         144
               145         145
               146         146
               147         147
               148         148
               149         149
               150         150
               151         151
               152         152
               153         153
               154         154
               155         155
               156         156
               157         157
               158         158
               159         159
               160         160
               161         161
               162         162
               163         163
               164         164
               165         165
               166         166
               167         167
               168         168
               169         169
               170         170
               171         171
               172         172
               173         173
               174         174
               175         175
               176         176
               177         177
               178         178
               179         179
               180         180
               181         181
               182         182
               183         183
               184         184
               185         185
               186         186
               187         187
               188         188
               189         189
               190         190
               191         191
               192         192
               193         193
               194         194
               195         195
               196         196
               197         197
               198         198
               199         199
               200         200
               201         201
               202         202
               203         203
               204         204
               205         205
               206         206
               207         207
               208         208
               209         209
               210         210
               211         211
               212         212
               213         213
               214         214
               215         215
               216         216
               217         217
               218         218
               219         219
               220         220
               221         221
               222         222
               223         223
               224         224
               225         225
               226         226
               227         227
               228         228
               229         229
               230         230
               231         231
               232         232
               233         233
               234         234
               235         235
               236         236
               237         237
               238         238
               239         239
               240         240
               241         241
               242         242
               243         243
               244         244
               245         245
               246         246
               247         247
               248         248
               249         249
               250         250
               251         251
               252         252
               253         253
               254         254
               255         255
               256         256
               257         257
               258         258
               259         259
               260         260
               261         261
               262         262
               263         263
               264         264
               265         265
               266         266
               267         267
               268         268
               269         269
               270         270
               271         271
               272         272
               273         273
               274         274
               275         275
               276         276
               277         277
               278         278
               279         279
               280         280
               281         281
               282         282
               283         283
               284         284
               285         285
               286         286
               287         287
               288         288
               289         289
               290         290
               291         291
               292         292
               293         293
               294         294
               295         295
               296         296
               297         297
               298         298
               299         299
               300         300
               301         301
               302         302
               303         303
               304         304
               305         305
               306         306
               307         307
               308         308
               309         309
               310         310
               311         311
               312         312
               313         313
               314         314
               315         315
               316         316
               317         317
               318         318
               319         319
               320         320
               321         321
               322         322
               323         323
               324         324
               325         325
               326         326
               327         327
               328         328
               329         329
               330         330
               331         331
               332         332
               333         333
               334         334
               335         335
               336         336
               337         337
               338         338
               339         339
               340         340
               341         341
               342         342
               343         343
               344         344
               345         345
               346         346
               347         347
               348         348
               349         349
               350         350
               351         351
               352         352
               353         353
               354         354
               355         355
               356         356
               357         357
               358         358
               359         359
               360         360
               361         361
               362         362
               363         363
               364         364
               365         365
               366         366
               367         367
               368         368
               369         369
               370         370
               371         371
               372         372
               373         373
               374         374
               375         375
               376         376
               377         377
               378         378
               379         379
               380         380
               381         381
               382         382
               383         383
               384         384

----------------------------------------------------------------------------------------



 KPOINTS: auto                                    

Automatic generation of k-mesh.
 Grid dimensions read from file:
 generate k-points for:    1    1    1

 Generating k-lattice:

  Cartesian coordinates                     Fractional coordinates (reciprocal lattice)
     0.057933459 -0.000000000  0.041028366     1.000000000  0.000000000  0.000000000
     0.000000000  0.082939689 -0.000000000     0.000000000  1.000000000  0.000000000
    -0.000637527  0.000000000  0.054751526     0.000000000  0.000000000  1.000000000

  Length of vectors
     0.070990229  0.082939689  0.054755237

  Shift w.r.t. Gamma in fractional coordinates (k-lattice)
     0.000000000  0.000000000  0.000000000

 
 Subroutine IBZKPT returns following result:
 ===========================================
 
 Found      1 irreducible k-points:
 
 Following reciprocal coordinates:
            Coordinates               Weight
  0.000000  0.000000  0.000000      1.000000
 
 Following cartesian coordinates:
            Coordinates               Weight
  0.000000  0.000000  0.000000      1.000000
 


--------------------------------------------------------------------------------------------------------




 Dimension of arrays:
   k-points           NKPTS =      1   k-points in BZ     NKDIM =      1   number of bands    NBANDS=    768
   number of dos      NEDOS =    301   number of ions     NIONS =    384
   non local maximal  LDIM  =      4   non local SUM 2l+1 LMDIM =      8
   total plane-waves  NPLWV = ******
   max r-space proj   IRMAX =      1   max aug-charges    IRDMAX=   9776
   dimension x,y,z NGX =   180 NGY =  126 NGZ =  240
   dimension x,y,z NGXF=   360 NGYF=  252 NGZF=  480
   support grid    NGXF=   360 NGYF=  252 NGZF=  480
   ions per type =             224 160
   NGX,Y,Z   is equivalent  to a cutoff of  17.48, 17.37, 17.97 a.u.
   NGXF,Y,Z  is equivalent  to a cutoff of  34.96, 34.75, 35.95 a.u.

 SYSTEM =  unknown system                          
 POSCAR =  super cell                              

 Startparameter for this run:
   NWRITE =      2    write-flag & timer
   PREC   = accura    normal or accurate (medium, high low for compatibility)
   ISTART =      0    job   : 0-new  1-cont  2-samecut
   ICHARG =      2    charge: 1-file 2-atom 10-const
   ISPIN  =      1    spin polarized calculation?
   LNONCOLLINEAR =      F non collinear calculations
   LSORBIT =      F    spin-orbit coupling
   INIWAV =      1    electr: 0-lowe 1-rand  2-diag
   LASPH  =      T    aspherical Exc in radial PAW
 Electronic Relaxation 1
   ENCUT  = 1000.0 eV  73.50 Ry    8.57 a.u.  44.15 31.09 57.24*2*pi/ulx,y,z
   ENINI  = 1000.0     initial cutoff
   ENAUG  = 1000.0 eV  augmentation charge cutoff
   NELM   =     60;   NELMIN=  2; NELMDL= -5     # of ELM steps 
   EDIFF  = 0.1E-07   stopping-criterion for ELM
   LREAL  =      F    real-space projection
   NLSPLINE    = F    spline interpolate recip. space projectors
   LCOMPAT=      F    compatible to vasp.4.4
   GGA_COMPAT  = T    GGA compatible to vasp.4.4-vasp.4.6
   LMAXPAW     = -100 max onsite density
   LMAXMIX     =    2 max onsite mixed and CHGCAR
   VOSKOWN=      0    Vosko Wilk Nusair interpolation
   ROPT   =    0.00000   0.00000
 Ionic relaxation
   EDIFFG = 0.1E-06   stopping-criterion for IOM
   NSW    =      0    number of steps for IOM
   NBLOCK =      1;   KBLOCK =      1    inner block; outer block 
   IBRION =     -1    ionic relax: 0-MD 1-quasi-New 2-CG
   NFREE  =      0    steps in history (QN), initial steepest desc. (CG)
   ISIF   =      1    stress and relaxation
   IWAVPR =     10    prediction:  0-non 1-charg 2-wave 3-comb
   ISYM   =      2    0-nonsym 1-usesym 2-fastsym
   LCORR  =      T    Harris-Foulkes like correction to forces

   POTIM  = 0.5000    time-step for ionic-motion
   TEIN   =    0.0    initial temperature
   TEBEG  =    0.0;   TEEND  =   0.0 temperature during run
   SMASS  =  -3.00    Nose mass-parameter (am)
   estimated Nose-frequenzy (Omega)   =  0.10E-29 period in steps = 0.13E+47 mass=  -0.670E-26a.u.
   SCALEE = 1.0000    scale energy and forces
   NPACO  =    256;   APACO  = 10.0  distance and # of slots for P.C.
   PSTRESS=    0.0 pullay stress

  Mass of Ions in am
   POMASS =  12.01  1.00
  Ionic Valenz
   ZVAL   =   4.00  1.00
  Atomic Wigner-Seitz radii
   RWIGS  =  -1.00 -1.00
  virtual crystal weights 
   VCA    =   1.00  1.00
   NELECT =    1056.0000    total number of electrons
   NUPDOWN=      -1.0000    fix difference up-down

 DOS related values:
   EMIN   =  10.00;   EMAX   =-10.00  energy-range for DOS
   EFERMI =   0.00;   METHOD = LEGACY      
   ISMEAR =     0;   SIGMA  =   0.01  broadening in eV -4-tet -1-fermi 0-gaus

 Electronic relaxation 2 (details)
   IALGO  =     58    algorithm
   LDIAG  =      T    sub-space diagonalisation (order eigenvalues)
   LSUBROT=      F    optimize rotation matrix (better conditioning)
   TURBO    =      0    0=normal 1=particle mesh
   IRESTART =      0    0=no restart 2=restart with 2 vectors
   NREBOOT  =      0    no. of reboots
   NMIN     =      0    reboot dimension
   EREF     =   0.00    reference energy to select bands
   IMIX   =      4    mixing-type and parameters
     AMIX     =   0.40;   BMIX     =  1.00
     AMIX_MAG =   1.60;   BMIX_MAG =  1.00
     AMIN     =   0.10
     WC   =   100.;   INIMIX=   1;  MIXPRE=   1;  MAXMIX= -45

 Intra band minimization:
   WEIMIN = 0.0000     energy-eigenvalue tresh-hold
   EBREAK =  0.33E-11  absolut break condition
   DEPER  =   0.30     relativ break condition  

   TIME   =   0.40     timestep for ELM

  volume/ion in A,a.u.               =       9.82        66.25
  Fermi-wavevector in a.u.,A,eV,Ry     =   1.071144  2.024168 15.610626  1.147349
  Thomas-Fermi vector in A             =   2.206875

 Write flags
   LWAVE        =      F    write WAVECAR
   LDOWNSAMPLE  =      F    k-point downsampling of WAVECAR
   LCHARG       =      F    write CHGCAR
   LVTOT        =      F    write LOCPOT, total local potential
   LVHAR        =      F    write LOCPOT, Hartree potential only
   LELF         =      F    write electronic localiz. function (ELF)
   LORBIT       =      0    0 simple, 1 ext, 2 COOP (PROOUT), +10 PAW based schemes


 Dipole corrections
   LMONO  =      F    monopole corrections only (constant potential shift)
   LDIPOL =      F    correct potential (dipole corrections)
   IDIPOL =      0    1-x, 2-y, 3-z, 4-all directions 
   EPSILON=  1.0000000 bulk dielectric constant

 Exchange correlation treatment:
   GGA     =    ML    GGA type
   LEXCH   =    44    internal setting for exchange type
   LIBXC   =     F    Libxc                    
   VOSKOWN =     0    Vosko Wilk Nusair interpolation
   LHFCALC =     F    Hartree Fock is set to
   LHFONE  =     F    Hartree Fock one center treatment
   AEXX    =    0.0000 exact exchange contribution

 vdW DFT:
   LUSE_VDW   =     T    switch on vdW DFT
   IVDW_NL    =     1    kernel type
   LSPIN_VDW  =     F    use spin-polarized vdW DFT
   Zab_VDW    =******    correlation parameter
   PARAM1     =0.1234
   PARAM2     =1.0000
   PARAM3     =0.0000
   -- rVV10 --
   BPARAM     = 6.3000
   CPARAM     = 0.0093

 Linear response parameters
   LEPSILON=     F    determine dielectric tensor
   LRPA    =     F    only Hartree local field effects (RPA)
   LNABLA  =     F    use nabla operator in PAW spheres
   LVEL    =     F    velocity operator in full k-point grid
   CSHIFT  =0.1000    complex shift for real part using Kramers Kronig
   OMEGAMAX=  -1.0    maximum frequency
   DEG_THRESHOLD= 0.2000000E-02 threshold for treating states as degnerate
   RTIME   =   -0.100 relaxation time in fs
  (WPLASMAI=    0.000 imaginary part of plasma frequency in eV, 0.658/RTIME)
   DFIELD  = 0.0000000 0.0000000 0.0000000 field for delta impulse in time

  Optional k-point grid parameters
   LKPOINTS_OPT  =     F    use optional k-point grid
   KPOINTS_OPT_MODE=     1    mode for optional k-point grid

 Orbital magnetization related:
   ORBITALMAG=     F  switch on orbital magnetization
   LCHIMAG   =     F  perturbation theory with respect to B field
   DQ        =  0.001000  dq finite difference perturbation B field
   LLRAUG    =     F  two centre corrections for induced B field
   LBONE     =     F  B-component reconstruction in AE one-centre
   LVGVCALC  =     T  calculate vGv susceptibility
   LVGVAPPL  =     F  apply vGv susceptibility instead of pGv for G=0

 Random number generation:
   RANDOM_GENERATOR = DEFAULT
   PCG_SEED         = not used


--------------------------------------------------------------------------------------------------------


 Static calculation
 charge density and potential will be updated during run
 non-spin polarized calculation
 Conjugate gradient for all bands (Freysoldt, et al. PRB 79, 241103 (2009))
 preconditioned conjugated gradient                                        
 perform sub-space diagonalisation
    before iterative eigenvector-optimisation
 modified Broyden-mixing scheme, WC =      100.0
 initial mixing is a Kerker type mixing with AMIX =  0.4000 and BMIX =      1.0000
 Hartree-type preconditioning will be used
 using additional bands          240
 reciprocal scheme for non local part
 use partial core corrections
 no Harris-corrections to forces 
 use gradient corrections 
 use of overlap-Matrix (Vanderbilt PP)
 Gauss-broadening in eV      SIGMA  =   0.01


--------------------------------------------------------------------------------------------------------


  energy-cutoff  :     1000.00
  volume of cell :     3770.03
      direct lattice vectors                 reciprocal lattice vectors
    17.120006260  0.000000000  0.199345354     0.057933459 -0.000000000  0.041028366
     0.000000000 12.056953747  0.000000000     0.000000000  0.082939689 -0.000000000
   -12.828973843  0.000000000 18.114950651    -0.000637527  0.000000000  0.054751526

  length of vectors
    17.121166809 12.056953747 22.197612641     0.070990229  0.082939689  0.054755237



 k-points in units of 2pi/SCALE and weight: auto                                    
   0.00000000  0.00000000  0.00000000       1.000

 k-points in reciprocal lattice and weights: auto                                    
   0.00000000  0.00000000  0.00000000       1.000

 position of ions in fractional coordinates (direct lattice) 
   0.04383290  0.01301979  0.18513948
   0.54383290  0.01301979  0.18513948
   0.04383290  0.51301979  0.18513948
   0.54383290  0.51301979  0.18513948
   0.04383290  0.01301979  0.68513948
   0.54383290  0.01301979  0.68513948
   0.04383290  0.51301979  0.68513948
   0.54383290  0.51301979  0.68513948
   0.05866128  0.07772797  0.14149226
   0.55866128  0.07772797  0.14149226
   0.05866128  0.57772797  0.14149226
   0.55866128  0.57772797  0.14149226
   0.05866128  0.07772797  0.64149226
   0.55866128  0.07772797  0.64149226
   0.05866128  0.57772797  0.64149226
   0.55866128  0.57772797  0.64149226
   0.02953960  0.04087193  0.07023804
   0.52953960  0.04087193  0.07023804
   0.02953960  0.54087193  0.07023804
   0.52953960  0.54087193  0.07023804
   0.02953960  0.04087193  0.57023804
   0.52953960  0.04087193  0.57023804
   0.02953960  0.54087193  0.57023804
   0.52953960  0.54087193  0.57023804
   0.04294378  0.10538014  0.02413773
   0.54294378  0.10538014  0.02413773
   0.04294378  0.60538014  0.02413773
   0.54294378  0.60538014  0.02413773
   0.04294378  0.10538014  0.52413773
   0.54294378  0.10538014  0.52413773
   0.04294378  0.60538014  0.52413773
   0.54294378  0.60538014  0.52413773
   0.48525257  0.43258425  0.04533538
   0.98525257  0.43258425  0.04533538
   0.48525257  0.93258425  0.04533538
   0.98525257  0.93258425  0.04533538
   0.48525257  0.43258425  0.54533538
   0.98525257  0.43258425  0.54533538
   0.48525257  0.93258425  0.54533538
   0.98525257  0.93258425  0.54533538
   0.47144841  0.36798631  0.09262734
   0.97144841  0.36798631  0.09262734
   0.47144841  0.86798631  0.09262734
   0.97144841  0.86798631  0.09262734
   0.47144841  0.36798631  0.59262734
   0.97144841  0.36798631  0.59262734
   0.47144841  0.86798631  0.59262734
   0.97144841  0.86798631  0.59262734
   0.49931844  0.40702962  0.16027500
   0.99931844  0.40702962  0.16027500
   0.49931844  0.90702962  0.16027500
   0.99931844  0.90702962  0.16027500
   0.49931844  0.40702962  0.66027500
   0.99931844  0.40702962  0.66027500
   0.49931844  0.90702962  0.66027500
   0.99931844  0.90702962  0.66027500
   0.01474743  0.06741575  0.45466461
   0.51474743  0.06741575  0.45466461
   0.01474743  0.56741575  0.45466461
   0.51474743  0.56741575  0.45466461
   0.01474743  0.06741575  0.95466461
   0.51474743  0.06741575  0.95466461
   0.01474743  0.56741575  0.95466461
   0.51474743  0.56741575  0.95466461
   0.45705622  0.39461986  0.47586227
   0.95705622  0.39461986  0.47586227
   0.45705622  0.89461986  0.47586227
   0.95705622  0.89461986  0.47586227
   0.45705622  0.39461986  0.97586227
   0.95705622  0.39461986  0.97586227
   0.45705622  0.89461986  0.97586227
   0.95705622  0.89461986  0.97586227
   0.47046040  0.45912807  0.42976196
   0.97046040  0.45912807  0.42976196
   0.47046040  0.95912807  0.42976196
   0.97046040  0.95912807  0.42976196
   0.47046040  0.45912807  0.92976196
   0.97046040  0.45912807  0.92976196
   0.47046040  0.95912807  0.92976196
   0.97046040  0.95912807  0.92976196
   0.02855159  0.13201369  0.40737265
   0.52855159  0.13201369  0.40737265
   0.02855159  0.63201369  0.40737265
   0.52855159  0.63201369  0.40737265
   0.02855159  0.13201369  0.90737265
   0.52855159  0.13201369  0.90737265
   0.02855159  0.63201369  0.90737265
   0.52855159  0.63201369  0.90737265
   0.44133872  0.42227203  0.35850774
   0.94133872  0.42227203  0.35850774
   0.44133872  0.92227203  0.35850774
   0.94133872  0.92227203  0.35850774
   0.44133872  0.42227203  0.85850774
   0.94133872  0.42227203  0.85850774
   0.44133872  0.92227203  0.85850774
   0.94133872  0.92227203  0.85850774
   0.00068156  0.09297038  0.33972500
   0.50068156  0.09297038  0.33972500
   0.00068156  0.59297038  0.33972500
   0.50068156  0.59297038  0.33972500
   0.00068156  0.09297038  0.83972500
   0.50068156  0.09297038  0.83972500
   0.00068156  0.59297038  0.83972500
   0.50068156  0.59297038  0.83972500
   0.45616710  0.48698021  0.31486052
   0.95616710  0.48698021  0.31486052
   0.45616710  0.98698021  0.31486052
   0.95616710  0.98698021  0.31486052
   0.45616710  0.48698021  0.81486052
   0.95616710  0.48698021  0.81486052
   0.45616710  0.98698021  0.81486052
   0.95616710  0.98698021  0.81486052
   0.20616707  0.26301985  0.31486050
   0.70616707  0.26301985  0.31486050
   0.20616707  0.76301985  0.31486050
   0.70616707  0.76301985  0.31486050
   0.20616707  0.26301985  0.81486050
   0.70616707  0.26301985  0.81486050
   0.20616707  0.76301985  0.81486050
   0.70616707  0.76301985  0.81486050
   0.29383293  0.23698015  0.18513950
   0.79383293  0.23698015  0.18513950
   0.29383293  0.73698015  0.18513950
   0.79383293  0.73698015  0.18513950
   0.29383293  0.23698015  0.68513950
   0.79383293  0.23698015  0.68513950
   0.29383293  0.73698015  0.68513950
   0.79383293  0.73698015  0.68513950
   0.19133873  0.32772802  0.35850775
   0.69133873  0.32772802  0.35850775
   0.19133873  0.82772802  0.35850775
   0.69133873  0.82772802  0.35850775
   0.19133873  0.32772802  0.85850775
   0.69133873  0.32772802  0.85850775
   0.19133873  0.82772802  0.85850775
   0.69133873  0.82772802  0.85850775
   0.30866127  0.17227198  0.14149225
   0.80866127  0.17227198  0.14149225
   0.30866127  0.67227198  0.14149225
   0.80866127  0.67227198  0.14149225
   0.30866127  0.17227198  0.64149225
   0.80866127  0.17227198  0.64149225
   0.30866127  0.67227198  0.64149225
   0.80866127  0.67227198  0.64149225
   0.22046041  0.29087198  0.42976198
   0.72046041  0.29087198  0.42976198
   0.22046041  0.79087198  0.42976198
   0.72046041  0.79087198  0.42976198
   0.22046041  0.29087198  0.92976198
   0.72046041  0.29087198  0.92976198
   0.22046041  0.79087198  0.92976198
   0.72046041  0.79087198  0.92976198
   0.27953959  0.20912802  0.07023802
   0.77953959  0.20912802  0.07023802
   0.27953959  0.70912802  0.07023802
   0.77953959  0.70912802  0.07023802
   0.27953959  0.20912802  0.57023802
   0.77953959  0.20912802  0.57023802
   0.27953959  0.70912802  0.57023802
   0.77953959  0.70912802  0.57023802
   0.20705625  0.35538015  0.47586231
   0.70705625  0.35538015  0.47586231
   0.20705625  0.85538015  0.47586231
   0.70705625  0.85538015  0.47586231
   0.20705625  0.35538015  0.97586231
   0.70705625  0.35538015  0.97586231
   0.20705625  0.85538015  0.97586231
   0.70705625  0.85538015  0.97586231
   0.29294375  0.14461985  0.02413769
   0.79294375  0.14461985  0.02413769
   0.29294375  0.64461985  0.02413769
   0.79294375  0.64461985  0.02413769
   0.29294375  0.14461985  0.52413769
   0.79294375  0.14461985  0.52413769
   0.29294375  0.64461985  0.52413769
   0.79294375  0.64461985  0.52413769
   0.26474742  0.18258428  0.45466460
   0.76474742  0.18258428  0.45466460
   0.26474742  0.68258428  0.45466460
   0.76474742  0.68258428  0.45466460
   0.26474742  0.18258428  0.95466460
   0.76474742  0.18258428  0.95466460
   0.26474742  0.68258428  0.95466460
   0.76474742  0.68258428  0.95466460
   0.23525258  0.31741572  0.04533540
   0.73525258  0.31741572  0.04533540
   0.23525258  0.81741572  0.04533540
   0.73525258  0.81741572  0.04533540
   0.23525258  0.31741572  0.54533540
   0.73525258  0.31741572  0.54533540
   0.23525258  0.81741572  0.54533540
   0.73525258  0.81741572  0.54533540
   0.27855153  0.11798634  0.40737262
   0.77855153  0.11798634  0.40737262
   0.27855153  0.61798634  0.40737262
   0.77855153  0.61798634  0.40737262
   0.27855153  0.11798634  0.90737262
   0.77855153  0.11798634  0.90737262
   0.27855153  0.61798634  0.90737262
   0.77855153  0.61798634  0.90737262
   0.22144847  0.38201367  0.09262737
   0.72144847  0.38201367  0.09262737
   0.22144847  0.88201367  0.09262737
   0.72144847  0.88201367  0.09262737
   0.22144847  0.38201367  0.59262737
   0.72144847  0.38201367  0.59262737
   0.22144847  0.88201367  0.59262737
   0.72144847  0.88201367  0.59262737
   0.25068150  0.15702967  0.33972497
   0.75068150  0.15702967  0.33972497
   0.25068150  0.65702967  0.33972497
   0.75068150  0.65702967  0.33972497
   0.25068150  0.15702967  0.83972497
   0.75068150  0.15702967  0.83972497
   0.25068150  0.65702967  0.83972497
   0.75068150  0.65702967  0.83972497
   0.24931850  0.34297034  0.16027503
   0.74931850  0.34297034  0.16027503
   0.24931850  0.84297034  0.16027503
   0.74931850  0.84297034  0.16027503
   0.24931850  0.34297034  0.66027503
   0.74931850  0.34297034  0.66027503
   0.24931850  0.84297034  0.66027503
   0.74931850  0.84297034  0.66027503
   0.06633118  0.04239845  0.23888795
   0.56633118  0.04239845  0.23888795
   0.06633118  0.54239845  0.23888795
   0.56633118  0.54239845  0.23888795
[...]
     -1.70895      1.74367      9.55313         0.000985      0.003275     -0.001956
      6.85105      1.74367      9.65280         0.001003      0.003262     -0.001970
     -1.70895      7.77215      9.55313         0.000985      0.003272     -0.001957
      6.85105      7.77215      9.65280         0.000983      0.003283     -0.001962
     -1.30040      2.20141      8.28900        -0.000076      0.000769      0.002597
      7.25960      2.20141      8.38868        -0.000108      0.000813      0.002618
     -1.30040      8.22989      8.28900        -0.000074      0.000767      0.002600
      7.25960      8.22989      8.38868        -0.000076      0.000763      0.002600
     -7.71489      2.20141     17.34648        -0.000088      0.000778      0.002620
      0.84511      2.20141     17.44615        -0.000077      0.000765      0.002603
     -7.71489      8.22989     17.34648        -0.000077      0.000776      0.002587
      0.84511      8.22989     17.44615        -0.000076      0.000768      0.002604
      3.44592      3.82707      0.86814         0.000027     -0.000711     -0.002688
     12.00592      3.82707      0.96782         0.000073     -0.000776     -0.002578
      3.44592      9.85554      0.86814         0.000078     -0.000758     -0.002599
     12.00592      9.85554      0.96782         0.000077     -0.000768     -0.002600
     -2.96857      3.82707      9.92562         0.000077     -0.000768     -0.002600
      5.59144      3.82707     10.02529         0.000078     -0.000788     -0.002581
     -2.96857      9.85554      9.92562         0.000076     -0.000766     -0.002602
      5.59144      9.85554     10.02529         0.000074     -0.000767     -0.002597
     -0.45737      1.42256      7.43506         0.001338      0.001331     -0.002560
      8.10263      1.42256      7.53474         0.001379      0.001369     -0.002634
     -0.45737      7.45103      7.43506         0.001337      0.001329     -0.002561
      8.10263      7.45103      7.53474         0.001345      0.001357     -0.002577
     -6.87186      1.42256     16.49254         0.001344      0.001315     -0.002571
      1.68815      1.42256     16.59221         0.001340      0.001329     -0.002561
     -6.87186      7.45103     16.49254         0.001335      0.001299     -0.002564
      1.68815      7.45103     16.59221         0.001338      0.001339     -0.002560
      2.60288      4.60592      1.72209        -0.001380     -0.001325      0.002502
     11.16289      4.60592      1.82176        -0.001329     -0.001306      0.002560
      2.60288     10.63440      1.72209        -0.001331     -0.001335      0.002569
     11.16289     10.63440      1.82176        -0.001335     -0.001333      0.002564
     -3.81160      4.60592     10.77956        -0.001339     -0.001338      0.002565
      4.74840      4.60592     10.87923        -0.001336     -0.001321      0.002550
     -3.81160     10.63440     10.77956        -0.001339     -0.001328      0.002560
      4.74840     10.63440     10.87923        -0.001333     -0.001336      0.002564
     -0.06665      1.89330      6.20407        -0.002022     -0.002836      0.000464
      8.49335      1.89330      6.30375        -0.002016     -0.003031      0.000449
     -0.06665      7.92178      6.20407        -0.002019     -0.002845      0.000463
      8.49335      7.92178      6.30375        -0.001997     -0.002837      0.000484
     -6.48114      1.89330     15.26155        -0.002041     -0.002840      0.000493
      2.07886      1.89330     15.36122        -0.002019     -0.002844      0.000467
     -6.48114      7.92178     15.26155        -0.002030     -0.002841      0.000459
      2.07886      7.92178     15.36122        -0.002017     -0.002840      0.000466
      2.21217      4.13518      2.95307         0.002001      0.002931     -0.000433
     10.77217      4.13518      3.05275         0.002032      0.002838     -0.000455
      2.21217     10.16365      2.95307         0.002023      0.002847     -0.000466
     10.77217     10.16365      3.05275         0.002031      0.002835     -0.000474
     -4.20232      4.13518     12.01055         0.002012      0.002841     -0.000470
      4.35769      4.13518     12.11022         0.002021      0.002839     -0.000462
     -4.20232     10.16365     12.01055         0.002024      0.002837     -0.000472
      4.35769     10.16365     12.11022         0.002019      0.002844     -0.000463
     -1.92910      0.51120      4.34067         0.001937      0.000455      0.001388
      6.63091      0.51120      4.44034         0.001948      0.000413      0.001422
     -1.92910      6.53967      4.34067         0.001936      0.000455      0.001387
      6.63091      6.53967      4.44034         0.002137      0.000715      0.002007
     -8.34358      0.51120     13.39814         0.001935      0.000453      0.001391
      0.21642      0.51120     13.49781         0.001938      0.000454      0.001388
     -8.34358      6.53967     13.39814         0.001938      0.000455      0.001389
      0.21642      6.53967     13.49781         0.001930      0.000453      0.001387
     -0.47496      1.90868      2.92022        -0.001855      0.002141     -0.000710
      8.08505      1.90868      3.01989        -0.001709      0.002106     -0.000729
     -0.47496      7.93716      2.92022        -0.001849      0.002138     -0.000711
      8.08505      7.93716      3.01989        -0.002006      0.001897     -0.000670
     -6.88944      1.90868     11.97770        -0.001845      0.002139     -0.000712
      1.67056      1.90868     12.07737        -0.001850      0.002139     -0.000710
     -6.88944      7.93716     11.97770        -0.001846      0.002135     -0.000710
      1.67056      7.93716     12.07737        -0.001848      0.002139     -0.000710
      0.75920      2.24439      0.79071        -0.000947     -0.000751     -0.002534
      9.31920      2.24439      0.89038        -0.000955     -0.000759     -0.002548
      0.75920      8.27287      0.79071        -0.000941     -0.000758     -0.002531
      9.31920      8.27287      0.89038        -0.000915     -0.000719     -0.002546
     -5.65529      2.24439      9.84818        -0.000939     -0.000758     -0.002530
      2.90471      2.24439      9.94786        -0.000945     -0.000758     -0.002533
     -5.65529      8.27287      9.84818        -0.000940     -0.000759     -0.002531
      2.90471      8.27287      9.94786        -0.000941     -0.000756     -0.002530
      6.55564      3.46367      1.42839         0.000643      0.001979      0.004864
     15.11564      3.46367      1.52807         0.000631      0.002281      0.003613
      6.55564      9.49214      1.42839         0.000650      0.002278      0.003629
     15.11564      9.49214      1.52807         0.000633      0.002282      0.003614
      0.14115      3.46367     10.48587         0.000635      0.002279      0.003614
      8.70115      3.46367     10.58554         0.000639      0.002280      0.003616
      0.14115      9.49214     10.48587         0.000636      0.002280      0.003615
      8.70115      9.49214     10.58554         0.000635      0.002281      0.003614
      5.85443      4.30262      3.62507        -0.163804     -0.128623      0.182879
     14.40865      4.30262      3.73291         0.000423      0.000143      0.002960
      5.84865     10.33110      3.63324         0.000435      0.000147      0.002960
     14.40865     10.33110      3.73291         0.000424      0.000144      0.002960
     -0.56584      4.30262     12.69071         0.000424      0.000149      0.002962
      7.99416      4.30262     12.79038         0.000423      0.000142      0.002962
     -0.56584     10.33110     12.69071         0.000426      0.000142      0.002961
      7.99416     10.33110     12.79038         0.000426      0.000143      0.002961
      1.38632      3.78409      8.36644         0.000940      0.000759      0.002531
      9.94632      3.78409      8.46611         0.000945      0.000754      0.002534
      1.38632      9.81256      8.36644         0.000942      0.000758      0.002532
      9.94632      9.81256      8.46611         0.000941      0.000758      0.002531
     -5.02817      3.78409     17.42392         0.000909      0.000732      0.002507
      3.53184      3.78409     17.52359         0.000938      0.000759      0.002530
     -5.02817      9.81256     17.42392         0.000953      0.000757      0.002545
      3.53184      9.81256     17.52359         0.000939      0.000760      0.002531
     -4.41012      2.56481      7.72876        -0.000634     -0.002280     -0.003614
      4.14988      2.56481      7.82843        -0.000645     -0.002288     -0.003625
     -4.41012      8.59329      7.72876        -0.000635     -0.002280     -0.003614
      4.14988      8.59329      7.82843        -0.000637     -0.002281     -0.003614
    -10.82461      2.56481     16.78623        -0.000642     -0.002279     -0.003619
     -2.26461      2.56481     16.88590        -0.000646     -0.002279     -0.003619
    -10.82461      8.59329     16.78623        -0.000635     -0.002280     -0.003614
     -2.26461      8.59329     16.88590        -0.000632     -0.002274     -0.003615
      2.62047      4.11979      6.23693         0.001868     -0.002114      0.000725
     11.18048      4.11979      6.33660         0.001851     -0.002139      0.000709
      2.62047     10.14827      6.23693         0.001850     -0.002137      0.000714
     11.18048     10.14827      6.33660         0.001848     -0.002138      0.000710
     -3.79401      4.11979     15.29440         0.001844     -0.002152      0.000709
      4.76599      4.11979     15.39407         0.001844     -0.002137      0.000712
     -3.79401     10.14827     15.29440         0.001855     -0.002139      0.000718
      4.76599     10.14827     15.39407         0.001846     -0.002136      0.000711
     -3.70313      1.72586      5.52391        -0.000426     -0.000142     -0.002961
      4.85687      1.72586      5.62359        -0.000449     -0.000102     -0.002932
     -3.70313      7.75433      5.52391        -0.000427     -0.000143     -0.002961
      4.85687      7.75433      5.62359        -0.000417     -0.000165     -0.002946
    -10.11762      1.72586     14.58139        -0.000424     -0.000142     -0.002963
     -1.55761      1.72586     14.68106        -0.000427     -0.000141     -0.002958
    -10.11762      7.75433     14.58139        -0.000425     -0.000143     -0.002960
     -1.55761      7.75433     14.68106        -0.000415     -0.000138     -0.002968
      4.07461      5.51728      4.81648        -0.001453     -0.000848     -0.001773
     12.63462      5.51728      4.91615        -0.001941     -0.000453     -0.001388
      4.07461     11.54576      4.81648        -0.001940     -0.000466     -0.001387
     12.63462     11.54576      4.91615        -0.001938     -0.000455     -0.001388
     -2.33987      5.51728     13.87396        -0.001923     -0.000444     -0.001406
      6.22013      5.51728     13.97363        -0.001936     -0.000453     -0.001390
     -2.33987     11.54576     13.87396        -0.001937     -0.000457     -0.001389
      6.22013     11.54576     13.97363        -0.001936     -0.000454     -0.001388
     -0.20539      3.52544      4.76665        -0.001941      0.000457     -0.001390
      8.35461      3.52544      4.86632        -0.001724      0.000573     -0.001450
     -0.20539      9.55391      4.76665        -0.001936      0.000455     -0.001391
      8.35461      9.55391      4.86632        -0.001937      0.000443     -0.001389
     -6.61988      3.52544     13.82412        -0.001934      0.000456     -0.001383
      1.94013      3.52544     13.92379        -0.001939      0.000456     -0.001392
     -6.61988      9.55391     13.82412        -0.001934      0.000457     -0.001392
      1.94013      9.55391     13.92379        -0.001937      0.000454     -0.001393
      2.35091      2.50304      4.39050         0.001944     -0.000442      0.001357
     10.91091      2.50304      4.49018         0.001945     -0.000461      0.001399
      2.35091      8.53152      4.39050         0.001936     -0.000450      0.001387
     10.91091      8.53152      4.49018         0.001931     -0.000456      0.001387
     -4.06358      2.50304     13.44798         0.001941     -0.000449      0.001392
      4.49642      2.50304     13.54765         0.001934     -0.000455      0.001389
     -4.06358      8.53152     13.44798         0.001943     -0.000458      0.001390
      4.49642      8.53152     13.54765         0.001933     -0.000454      0.001390
     -1.65953      4.92292      6.18709         0.001850      0.002138      0.000710
      6.90047      4.92292      6.28676         0.001802      0.002154      0.000630
     -1.65953     10.95140      6.18709         0.001848      0.002139      0.000710
      6.90047     10.95140      6.28676         0.001843      0.002139      0.000712
     -8.07402      4.92292     15.24457         0.001855      0.002135      0.000716
      0.48599      4.92292     15.34424         0.001843      0.002134      0.000712
     -8.07402     10.95140     15.24457         0.001846      0.002139      0.000709
      0.48599     10.95140     15.34424         0.001847      0.002139      0.000710
      3.80505      1.10556      2.97006        -0.001898     -0.002157     -0.000725
     12.36505      1.10556      3.06973        -0.001848     -0.002140     -0.000711
      3.80505      7.13403      2.97006        -0.001849     -0.002096     -0.000706
     12.36505      7.13403      3.06973        -0.001854     -0.002139     -0.000713
     -2.60944      1.10556     12.02753        -0.001849     -0.002138     -0.000711
      5.95056      1.10556     12.12720        -0.001850     -0.002136     -0.000712
     -2.60944      7.13403     12.02753        -0.001851     -0.002133     -0.000704
      5.95056      7.13403     12.12720        -0.001848     -0.002138     -0.000710
     -2.89368      5.25863      8.31660         0.000943     -0.000759      0.002532
      5.66632      5.25863      8.41628         0.000943     -0.000773      0.002535
     -2.89368     11.28711      8.31660         0.000943     -0.000759      0.002532
      5.66632     11.28711      8.41628         0.000939     -0.000759      0.002532
     -9.30817      5.25863     17.37408         0.000946     -0.000764      0.002540
     -0.74817      5.25863     17.47375         0.000931     -0.000765      0.002531
     -9.30817     11.28711     17.37408         0.000938     -0.000759      0.002530
     -0.74817     11.28711     17.47375         0.000942     -0.000759      0.002532
      5.03920      0.76985      0.84054        -0.000950      0.000755     -0.002542
     13.59920      0.76985      0.94022        -0.000944      0.000757     -0.002533
      5.03920      6.79832      0.84054        -0.000910      0.000791     -0.002548
     13.59920      6.79832      0.94022        -0.000947      0.000757     -0.002533
     -1.37529      0.76985      9.89802        -0.000942      0.000759     -0.002533
      7.18471      0.76985      9.99769        -0.000942      0.000761     -0.002534
     -1.37529      6.79832      9.89802        -0.000942      0.000760     -0.002531
      7.18471      6.79832      9.99769        -0.000940      0.000760     -0.002531
     -0.13012      0.44943      7.77859        -0.000636      0.002281     -0.003617
      8.42988      0.44943      7.87826        -0.000617      0.002291     -0.003621
     -0.13012      6.47791      7.77859        -0.000634      0.002282     -0.003615
      8.42988      6.47791      7.87826        -0.000635      0.002285     -0.003614
     -6.54461      0.44943     16.83607        -0.000636      0.002284     -0.003618
      2.01540      0.44943     16.93574        -0.000639      0.002281     -0.003618
     -6.54461      6.47791     16.83607        -0.000611      0.002289     -0.003601
      2.01540      6.47791     16.93574        -0.000641      0.002281     -0.003618
      2.27564      5.57905      1.37856         0.000635     -0.002288      0.003617
     10.83564      5.57905      1.47823         0.000613     -0.002291      0.003613
      2.27564     11.60753      1.37856         0.000628     -0.002282      0.003611
     10.83564     11.60753      1.47823         0.000640     -0.002281      0.003616
     -4.13885      5.57905     10.43603         0.000638     -0.002281      0.003618
      4.42115      5.57905     10.53571         0.000635     -0.002283      0.003616
     -4.13885     11.60753     10.43603         0.000638     -0.002281      0.003616
      4.42115     11.60753     10.53571         0.000634     -0.002282      0.003616
      0.57687      1.28838      5.57375        -0.000428      0.000139     -0.002959
      9.13687      1.28838      5.67342        -0.000428      0.000145     -0.002952
      0.57687      7.31686      5.57375        -0.000425      0.000145     -0.002958
      9.13687      7.31686      5.67342        -0.000444      0.000156     -0.002964
     -5.83762      1.28838     14.63122        -0.000426      0.000147     -0.002956
      2.72239      1.28838     14.73090        -0.000426      0.000140     -0.002963
     -5.83762      7.31686     14.63122        -0.000420      0.000145     -0.002952
      2.72239      7.31686     14.73090        -0.000426      0.000143     -0.002964
      1.56865      4.74009      3.58340         0.000445     -0.000164      0.002948
     10.12865      4.74009      3.68307         0.000433     -0.000133      0.002942
      1.56865     10.76857      3.58340         0.000424     -0.000148      0.002962
     10.12865     10.76857      3.68307         0.000426     -0.000146      0.002964
     -4.84584      4.74009     12.64088         0.000436     -0.000144      0.002964
      3.71416      4.74009     12.74055         0.000425     -0.000145      0.002959
     -4.84584     10.76857     12.64088         0.000426     -0.000143      0.002962
      3.71416     10.76857     12.74055         0.000423     -0.000144      0.002962
 -----------------------------------------------------------------------------------
    total drift:                                0.000008     -0.000028      0.000013


--------------------------------------------------------------------------------------------------------



  FREE ENERGIE OF THE ION-ELECTRON SYSTEM (eV)
  ---------------------------------------------------
  free  energy   TOTEN  =     -2308.19555536 eV

  energy  without entropy=    -2308.19555536  energy(sigma->0) =    -2308.19555536



--------------------------------------------------------------------------------------------------------


    POTLOK:  cpu time      5.1333: real time      5.1357


--------------------------------------------------------------------------------------------------------


     LOOP+:  cpu time    423.1986: real time    432.2604
    4ORBIT:  cpu time      0.0000: real time      0.0000

 total amount of memory used by VASP MPI-rank0   346474. kBytes
=======================================================================

   base      :      30000. kBytes
   nonl-proj :     212746. kBytes
   fftplans  :      32386. kBytes
   grid      :      61316. kBytes
   one-center:        147. kBytes
   wavefun   :       9879. kBytes

  
  
 General timing and accounting informations for this job:
 ========================================================
  
                  Total CPU time used (sec):      486.221
                            User time (sec):      481.623
                          System time (sec):        4.598
                         Elapsed time (sec):      511.552
  
                   Maximum memory used (kb):      689072.
                   Average memory used (kb):          N/A
  
                          Minor page faults:       144574
                          Major page faults:         1253
                 Voluntary context switches:        12209
