 vasp.6.4.1 05Apr23 (build Jun  6 2023 14:36:51) complex                         
 executed on        HPECrayEX_GCC date 2024.08.20  14:30:36
 running  256 mpi-ranks, with    1 threads/rank, on    2 nodes
 distrk:  each k-point on  128 cores,    2 groups
 distr:  one band on NCORE=  32 cores,    4 groups


--------------------------------------------------------------------------------------------------------


 INCAR:
   ALGO = Conjugate
   KPAR = 2
   NCORE = 32
   ISMEAR = 0
   SIGMA = 0.01
   PREC = Accurate
   EDIFF = 1E-7
   ENCUT = 1000
   ISIF = 0
   METAGGA = RSCAN
   LASPH = .TRUE.
   SYMPREC = 1E-7
   LWAVE = .FALSE.
   LCHARG = .FALSE.
   LWAVE = .FALSE.
   LCHARGE = .FALSE.

 POTCAR:    PAW_PBE C_h 06Feb2004                 
 POTCAR:    PAW_PBE H_h 06Feb2004                 
 POTCAR:    PAW_PBE O_h 06Feb2004                 
 POTCAR:    PAW_PBE C_h 06Feb2004                 
   VRHFIN =C: s2p2                                                                                  
   LEXCH  = PE                                                                                      
   EATOM  =   147.1560 eV,   10.8157 Ry                                                             
                                                                                                    
   TITEL  = PAW_PBE C_h 06Feb2004                                                                   
   LULTRA =        F    use ultrasoft PP ?                                                          
   IUNSCR =        1    unscreen: 0-lin 1-nonlin 2-no                                               
   RPACOR =    0.800    partial core radius                                                         
   POMASS =   12.011; ZVAL   =    4.000    mass and valenz                                          
   RCORE  =    1.100    outmost cutoff radius                                                       
   RWIGS  =    1.630; RWIGS  =    0.863    wigner-seitz radius (au A)                               
   ENMAX  =  700.000; ENMIN  =  500.000 eV                                                          
   ICORE  =        2    local potential                                                             
   LCOR   =        T    correct aug charges                                                         
   LPAW   =        T    paw PP                                                                      
   EAUG   =  946.768                                                                                
   DEXC   =    0.000                                                                                
   RMAX   =    1.128    core radius for proj-oper                                                   
   RAUG   =    1.300    factor for augmentation sphere                                              
   RDEP   =    1.162    radius for radial grids                                                     
   RDEPT  =    1.088    core radius for aug-charge                                                  
                                                                                                    
   Atomic configuration                                                                             
    4 entries                                                                                       
     n  l   j            E        occ.                                                              
     1  0  0.50      -273.3789   2.0000                                                             
     2  0  0.50       -13.7508   2.0000                                                             
     2  1  0.50        -5.2854   2.0000                                                             
     3  2  1.50        -5.4423   0.0000                                                             
   Description                                                                                      
     l       E           TYP  RCUT    TYP  RCUT                                                     
     0    -13.7508458     23  1.100                                                                 
     0     -8.2022199     23  1.100                                                                 
     1     -5.2854383     23  1.100                                                                 
     1      1.1560700     23  1.100                                                                 
     2     -5.4423304      7  1.100                                                                 
  local pseudopotential read in
  partial core-charges read in
  partial kinetic energy density read in
  atomic valenz-charges read in
  non local Contribution for L=           0  read in
    real space projection operators read in
  non local Contribution for L=           0  read in
    real space projection operators read in
  non local Contribution for L=           1  read in
    real space projection operators read in
  non local Contribution for L=           1  read in
    real space projection operators read in
    PAW grid and wavefunctions read in

   number of l-projection  operators is LMAX  =           4
   number of lm-projection operators is LMMAX =           8

 POTCAR:    PAW_PBE H_h 06Feb2004                 
   VRHFIN =H: ultrasoft test                                                                        
   LEXCH  = PE                                                                                      
   EATOM  =    12.4884 eV,    0.9179 Ry                                                             
                                                                                                    
   TITEL  = PAW_PBE H_h 06Feb2004                                                                   
   LULTRA =        F    use ultrasoft PP ?                                                          
   IUNSCR =        0    unscreen: 0-lin 1-nonlin 2-no                                               
   RPACOR =    0.000    partial core radius                                                         
   POMASS =    1.000; ZVAL   =    1.000    mass and valenz                                          
   RCORE  =    0.800    outmost cutoff radius                                                       
   RWIGS  =    0.700; RWIGS  =    0.370    wigner-seitz radius (au A)                               
   ENMAX  =  700.000; ENMIN  =  350.000 eV                                                          
   RCLOC  =    0.701    cutoff for local pot                                                        
   LCOR   =        T    correct aug charges                                                         
   LPAW   =        T    paw PP                                                                      
   EAUG   = 1000.000                                                                                
   RMAX   =    0.819    core radius for proj-oper                                                   
   RAUG   =    1.000    factor for augmentation sphere                                              
   RDEP   =    0.817    radius for radial grids                                                     
   RDEPT  =    0.817    core radius for aug-charge                                                  
                                                                                                    
   Atomic configuration                                                                             
    2 entries                                                                                       
     n  l   j            E        occ.                                                              
     1  0  0.50        -6.4927   1.0000                                                             
     2  1  0.50        -3.4015   0.0000                                                             
   Description                                                                                      
     l       E           TYP  RCUT    TYP  RCUT                                                     
     0     -6.4927493     23  0.800                                                                 
     0      6.8029130     23  0.800                                                                 
     1     -6.8029130     23  0.800                                                                 
  local pseudopotential read in
  atomic valenz-charges read in
  non local Contribution for L=           0  read in
    real space projection operators read in
  non local Contribution for L=           0  read in
    real space projection operators read in
  non local Contribution for L=           1  read in
    real space projection operators read in
    PAW grid and wavefunctions read in

   number of l-projection  operators is LMAX  =           3
   number of lm-projection operators is LMMAX =           5

 POTCAR:    PAW_PBE O_h 06Feb2004                 
   VRHFIN =O: s2p4                                                                                  
   LEXCH  = PE                                                                                      
   EATOM  =   432.3788 eV,   31.7789 Ry                                                             
                                                                                                    
   TITEL  = PAW_PBE O_h 06Feb2004                                                                   
   LULTRA =        F    use ultrasoft PP ?                                                          
   IUNSCR =        1    unscreen: 0-lin 1-nonlin 2-no                                               
   RPACOR =    0.800    partial core radius                                                         
   POMASS =   16.000; ZVAL   =    6.000    mass and valenz                                          
   RCORE  =    1.100    outmost cutoff radius                                                       
   RWIGS  =    1.400; RWIGS  =    0.741    wigner-seitz radius (au A)                               
   ENMAX  =  700.000; ENMIN  =  500.000 eV                                                          
   ICORE  =        2    local potential                                                             
   LCOR   =        T    correct aug charges                                                         
   LPAW   =        T    paw PP                                                                      
   EAUG   =  888.804                                                                                
   DEXC   =    0.000                                                                                
   RMAX   =    1.128    core radius for proj-oper                                                   
   RAUG   =    1.300    factor for augmentation sphere                                              
   RDEP   =    1.125    radius for radial grids                                                     
   RDEPT  =    1.088    core radius for aug-charge                                                  
                                                                                                    
   Atomic configuration                                                                             
    4 entries                                                                                       
     n  l   j            E        occ.                                                              
     1  0  0.50      -514.6923   2.0000                                                             
     2  0  0.50       -23.9615   2.0000                                                             
     2  1  0.50        -9.0305   4.0000                                                             
     3  2  1.50        -9.5241   0.0000                                                             
   Description                                                                                      
     l       E           TYP  RCUT    TYP  RCUT                                                     
     0    -23.9615319     23  1.100                                                                 
     0    -25.3221145     23  1.100                                                                 
     1     -9.0304911     23  1.100                                                                 
     1     -5.4802209     23  1.100                                                                 
     2     -9.5240782      7  1.100                                                                 
  local pseudopotential read in
  partial core-charges read in
  partial kinetic energy density read in
  atomic valenz-charges read in
  non local Contribution for L=           0  read in
    real space projection operators read in
  non local Contribution for L=           0  read in
    real space projection operators read in
  non local Contribution for L=           1  read in
    real space projection operators read in
  non local Contribution for L=           1  read in
    real space projection operators read in
    PAW grid and wavefunctions read in

   number of l-projection  operators is LMAX  =           4
   number of lm-projection operators is LMMAX =           8

 -----------------------------------------------------------------------------
|                                                                             |
|               ----> ADVICE to this user running VASP <----                  |
|                                                                             |
|     You have a (more or less) 'large supercell' and for larger cells it     |
|     might be more efficient to use real-space projection operators.         |
|     Therefore, try LREAL= Auto in the INCAR file.                           |
|     Mind: For very accurate calculation, you might also keep the            |
|     reciprocal projection scheme (i.e. LREAL=.FALSE.).                      |
|                                                                             |
 -----------------------------------------------------------------------------

  PAW_PBE C_h 06Feb2004                 :
 energy of atom  1       EATOM= -147.1560
 kinetic energy error for atom=    0.0031 (will be added to EATOM!!)
  PAW_PBE H_h 06Feb2004                 :
 energy of atom  2       EATOM=  -12.4884
 kinetic energy error for atom=    0.0006 (will be added to EATOM!!)
  PAW_PBE O_h 06Feb2004                 :
 energy of atom  3       EATOM= -432.3788
 kinetic energy error for atom=    0.0171 (will be added to EATOM!!)


 POSCAR:  C  H  O
  positions in cartesian coordinates
  No initial velocities read in

 METAGGA = RSCAN                                       LMAXTAU =  6    LMIXTAU =  F

 exchange correlation table for  LEXCH =        8
   RHO(1)=    0.500       N(1)  =     2000
   RHO(2)=  100.500       N(2)  =     4000

 VTST: version 4.1, (05/19/21)

 CHAIN: initializing optimizer
 
 OPT: Using VASP Dynamics algorithm
 CHAIN: Read ICHAIN            0

 POSCAR:  C  H  O
  positions in cartesian coordinates
  No initial velocities read in



--------------------------------------------------------------------------------------------------------


 ion  position               nearest neighbor table
   1  0.431  0.168  0.447-  29 1.23  11 1.51   3 1.52
   2  0.569  0.668  0.553-  30 1.23  12 1.51   4 1.52
   3  0.518  0.170  0.257-  13 1.10  15 1.10   1 1.52   5 1.54
   4  0.482  0.670  0.743-  14 1.10  16 1.10   2 1.52   6 1.54
   5  0.358  0.215  0.072-  19 1.10  17 1.10   7 1.51   3 1.54
   6  0.642  0.715  0.928-  20 1.10  18 1.10   8 1.51   4 1.54
   7  0.174  0.070  0.060-  31 1.23   5 1.51   9 1.52
   8  0.826  0.570  0.940-  32 1.23   6 1.51  10 1.52
   9  0.101  0.024  0.254-  23 1.10  21 1.10   7 1.52  11 1.54
  10  0.899  0.524  0.746-  24 1.10  22 1.10   8 1.52  12 1.54
  11  0.201  0.169  0.425-  27 1.10  25 1.11   1 1.51   9 1.54
  12  0.799  0.669  0.575-  28 1.10  26 1.11   2 1.51  10 1.54
  13  0.643  0.287  0.271-   3 1.10
  14  0.357  0.787  0.729-   4 1.10
  15  0.585  0.009  0.247-   3 1.10
  16  0.415  0.509  0.753-   4 1.10
  17  0.301  0.381  0.081-   5 1.10
  18  0.699  0.881  0.919-   6 1.10
  19  0.423  0.199  0.936-   5 1.10
  20  0.577  0.699  0.064-   6 1.10
  21  0.137  0.854  0.289-   9 1.10
  22  0.863  0.354  0.711-  10 1.10
  23  0.935  0.039  0.229-   9 1.10
  24  0.065  0.539  0.771-  10 1.10
  25  0.152  0.337  0.392-  11 1.11
  26  0.848  0.837  0.608-  12 1.11
  27  0.156  0.124  0.566-  11 1.10
  28  0.844  0.624  0.434-  12 1.10
  29  0.543  0.165  0.609-   1 1.23
  30  0.457  0.665  0.391-   2 1.23
  31  0.088  0.991  0.904-   7 1.23
  32  0.912  0.491  0.096-   8 1.23

  LATTYP: Found a simple monoclinic cell.
 ALAT       =     6.6500000000
 B/A-ratio  =     0.9338345865
 C/A-ratio  =     1.0330821040
 COS(beta)  =    -0.1705532291
  
  Lattice vectors:
  
 A1 = (   6.6500000000,   0.0000000000,   0.0000000000)
 A2 = (   0.0000000000,   6.2100000000,   0.0000000000)
 A3 = (  -1.1717000000,   0.0000000000,   6.7693400000)


Analysis of symmetry for initial positions (statically):
=====================================================================
 Subroutine PRICEL returns:
 Original cell was already a primitive cell.
 

 Routine SETGRP: Setting up the symmetry group for a 
 simple monoclinic supercell.


 Subroutine GETGRP returns: Found  1 space group operations
 (whereof  1 operations were pure point group operations)
 out of a pool of  4 trial point group operations.


The static configuration has the point symmetry C_1 .


Analysis of symmetry for dynamics (positions and initial velocities):
=====================================================================
 Subroutine PRICEL returns:
 Original cell was already a primitive cell.
 

 Routine SETGRP: Setting up the symmetry group for a 
 simple monoclinic supercell.


 Subroutine GETGRP returns: Found  1 space group operations
 (whereof  1 operations were pure point group operations)
 out of a pool of  4 trial point group operations.


The dynamic configuration has the point symmetry C_1 .


 Subroutine INISYM returns: Found  1 space group operations
 (whereof  1 operations are pure point group operations),
 and found     1 'primitive' translations


----------------------------------------------------------------------------------------

                                     Primitive cell                                     

  volume of cell :     279.5500

  direct lattice vectors                    reciprocal lattice vectors
     6.650000000  0.000000000  0.000000000     0.150375940 -0.000000000  0.026028459
     0.000000000  6.210000000  0.000000000     0.000000000  0.161030596 -0.000000000
    -1.171700000  0.000000000  6.769340000     0.000000000  0.000000000  0.147724889

  length of vectors
     6.650000000  6.210000000  6.869995992     0.152611939  0.161030596  0.147724889

  position of ions in fractional coordinates (direct lattice)
     0.430596934  0.168415645  0.447246499
     0.569402684  0.668411586  0.552747901
     0.517712700  0.169696514  0.257241761
     0.482285808  0.669699730  0.742754295
     0.358387813  0.214728312  0.072203657
     0.641608337  0.714732745  0.927793743
     0.173527056  0.070106752  0.060279888
     0.826469951  0.570110222  0.939720112
     0.101361308  0.024293230  0.253950463
     0.898639441  0.524295920  0.746049862
     0.200830755  0.169104039  0.425214823
     0.799170228  0.669102809  0.574782411
     0.643432873  0.286679458  0.271346732
     0.356565504  0.786682473  0.728646812
     0.585462031  0.008989135  0.247017566
     0.414534072  0.508993625  0.752979240
     0.301332952  0.380995791  0.080687977
     0.698658800  0.881002061  0.919312169
     0.422781436  0.198866956  0.936013107
     0.577215320  0.698865900  0.063984030
     0.137474218  0.853800507  0.289115351
     0.862528711  0.353802491  0.710889771
     0.934555520  0.039434101  0.229452206
     0.065444480  0.539439265  0.770549094
     0.152378381  0.337332307  0.391736502
     0.847620959  0.837331508  0.608262147
     0.155552501  0.123839817  0.566113583
     0.844451209  0.623837803  0.433882794
     0.543007233  0.165396602  0.608989152
     0.456992138  0.665382227  0.391003054
     0.087836692  0.991010865  0.904262631
     0.912153244  0.491007815  0.095737149

  ion indices of the primitive-cell ions
   primitive index   ion index
                 1           1
                 2           2
                 3           3
                 4           4
                 5           5
                 6           6
                 7           7
                 8           8
                 9           9
                10          10
                11          11
                12          12
                13          13
                14          14
                15          15
                16          16
                17          17
                18          18
                19          19
                20          20
                21          21
                22          22
                23          23
                24          24
                25          25
                26          26
                27          27
                28          28
                29          29
                30          30
                31          31
                32          32

----------------------------------------------------------------------------------------



 KPOINTS: auto                                    

Automatic generation of k-mesh.
 Grid dimensions read from file:
 generate k-points for:    4    4    4

 Generating k-lattice:

  Cartesian coordinates                     Fractional coordinates (reciprocal lattice)
     0.037593985 -0.000000000  0.006507115     0.250000000  0.000000000 -0.000000000
     0.000000000  0.040257649 -0.000000000     0.000000000  0.250000000  0.000000000
     0.000000000  0.000000000  0.036931222     0.000000000  0.000000000  0.250000000

  Length of vectors
     0.038152985  0.040257649  0.036931222

  Shift w.r.t. Gamma in fractional coordinates (k-lattice)
     0.000000000  0.000000000  0.000000000

 
 Subroutine IBZKPT returns following result:
 ===========================================
 
 Found     36 irreducible k-points:
 
 Following reciprocal coordinates:
            Coordinates               Weight
  0.000000  0.000000  0.000000      1.000000
  0.250000  0.000000  0.000000      2.000000
  0.500000  0.000000  0.000000      1.000000
  0.000000  0.250000  0.000000      2.000000
  0.250000  0.250000  0.000000      2.000000
 -0.250000  0.250000  0.000000      2.000000
  0.500000  0.250000  0.000000      2.000000
  0.000000  0.500000  0.000000      1.000000
  0.250000  0.500000  0.000000      2.000000
  0.500000  0.500000  0.000000      1.000000
  0.000000  0.000000  0.250000      2.000000
  0.250000  0.000000  0.250000      2.000000
  0.500000  0.000000  0.250000      2.000000
 -0.250000  0.000000  0.250000      2.000000
  0.000000  0.250000  0.250000      2.000000
  0.000000  0.250000 -0.250000      2.000000
  0.250000  0.250000  0.250000      2.000000
 -0.250000  0.250000 -0.250000      2.000000
  0.500000  0.250000  0.250000      2.000000
  0.500000  0.250000 -0.250000      2.000000
 -0.250000  0.250000  0.250000      2.000000
  0.250000  0.250000 -0.250000      2.000000
  0.000000  0.500000  0.250000      2.000000
  0.250000  0.500000  0.250000      2.000000
  0.500000  0.500000  0.250000      2.000000
 -0.250000  0.500000  0.250000      2.000000
  0.000000  0.000000  0.500000      1.000000
  0.250000  0.000000  0.500000      2.000000
  0.500000  0.000000  0.500000      1.000000
  0.000000  0.250000  0.500000      2.000000
  0.250000  0.250000  0.500000      2.000000
 -0.250000  0.250000  0.500000      2.000000
  0.500000  0.250000  0.500000      2.000000
  0.000000  0.500000  0.500000      1.000000
  0.250000  0.500000  0.500000      2.000000
  0.500000  0.500000  0.500000      1.000000
 
 Following cartesian coordinates:
            Coordinates               Weight
  0.000000  0.000000  0.000000      1.000000
  0.037594  0.000000  0.006507      2.000000
  0.075188  0.000000  0.013014      1.000000
  0.000000  0.040258  0.000000      2.000000
  0.037594  0.040258  0.006507      2.000000
 -0.037594  0.040258 -0.006507      2.000000
  0.075188  0.040258  0.013014      2.000000
  0.000000  0.080515  0.000000      1.000000
  0.037594  0.080515  0.006507      2.000000
  0.075188  0.080515  0.013014      1.000000
  0.000000  0.000000  0.036931      2.000000
  0.037594  0.000000  0.043438      2.000000
  0.075188  0.000000  0.049945      2.000000
 -0.037594  0.000000  0.030424      2.000000
  0.000000  0.040258  0.036931      2.000000
  0.000000  0.040258 -0.036931      2.000000
  0.037594  0.040258  0.043438      2.000000
 -0.037594  0.040258 -0.043438      2.000000
  0.075188  0.040258  0.049945      2.000000
  0.075188  0.040258 -0.023917      2.000000
 -0.037594  0.040258  0.030424      2.000000
  0.037594  0.040258 -0.030424      2.000000
  0.000000  0.080515  0.036931      2.000000
  0.037594  0.080515  0.043438      2.000000
  0.075188  0.080515  0.049945      2.000000
 -0.037594  0.080515  0.030424      2.000000
  0.000000  0.000000  0.073862      1.000000
  0.037594  0.000000  0.080370      2.000000
  0.075188  0.000000  0.086877      1.000000
  0.000000  0.040258  0.073862      2.000000
  0.037594  0.040258  0.080370      2.000000
 -0.037594  0.040258  0.067355      2.000000
  0.075188  0.040258  0.086877      2.000000
  0.000000  0.080515  0.073862      1.000000
  0.037594  0.080515  0.080370      2.000000
  0.075188  0.080515  0.086877      1.000000
 


--------------------------------------------------------------------------------------------------------




 Dimension of arrays:
   k-points           NKPTS =     36   k-points in BZ     NKDIM =     36   number of bands    NBANDS=     64
   number of dos      NEDOS =    301   number of ions     NIONS =     32
   non local maximal  LDIM  =      4   non local SUM 2l+1 LMDIM =      8
   total plane-waves  NPLWV = 322560
   max r-space proj   IRMAX =      1   max aug-charges    IRDMAX=   8614
   dimension x,y,z NGX =    70 NGY =   64 NGZ =   72
   dimension x,y,z NGXF=   140 NGYF=  128 NGZF=  144
   support grid    NGXF=   140 NGYF=  128 NGZF=  144
   ions per type =              12  16   4
   NGX,Y,Z   is equivalent  to a cutoff of  17.50, 17.13, 17.42 a.u.
   NGXF,Y,Z  is equivalent  to a cutoff of  35.00, 34.27, 34.85 a.u.

 SYSTEM =  unknown system                          
 POSCAR =   C  H  O                                

 Startparameter for this run:
   NWRITE =      2    write-flag & timer
   PREC   = accura    normal or accurate (medium, high low for compatibility)
   ISTART =      0    job   : 0-new  1-cont  2-samecut
   ICHARG =      2    charge: 1-file 2-atom 10-const
   ISPIN  =      1    spin polarized calculation?
   LNONCOLLINEAR =      F non collinear calculations
   LSORBIT =      F    spin-orbit coupling
   INIWAV =      1    electr: 0-lowe 1-rand  2-diag
   LASPH  =      T    aspherical Exc in radial PAW
 Electronic Relaxation 1
   ENCUT  = 1000.0 eV  73.50 Ry    8.57 a.u.  17.15 16.01 17.71*2*pi/ulx,y,z
   ENINI  = 1000.0     initial cutoff
   ENAUG  = 1000.0 eV  augmentation charge cutoff
   NELM   =     60;   NELMIN=  2; NELMDL= -5     # of ELM steps 
   EDIFF  = 0.1E-06   stopping-criterion for ELM
   LREAL  =      F    real-space projection
   NLSPLINE    = F    spline interpolate recip. space projectors
   LCOMPAT=      F    compatible to vasp.4.4
   GGA_COMPAT  = T    GGA compatible to vasp.4.4-vasp.4.6
   LMAXPAW     = -100 max onsite density
   LMAXMIX     =    2 max onsite mixed and CHGCAR
   VOSKOWN=      0    Vosko Wilk Nusair interpolation
   ROPT   =    0.00000   0.00000   0.00000
 Ionic relaxation
   EDIFFG = 0.1E-05   stopping-criterion for IOM
   NSW    =      0    number of steps for IOM
   NBLOCK =      1;   KBLOCK =      1    inner block; outer block 
   IBRION =     -1    ionic relax: 0-MD 1-quasi-New 2-CG
   NFREE  =      0    steps in history (QN), initial steepest desc. (CG)
   ISIF   =      0    stress and relaxation
   IWAVPR =     10    prediction:  0-non 1-charg 2-wave 3-comb
   ISYM   =      2    0-nonsym 1-usesym 2-fastsym
   LCORR  =      T    Harris-Foulkes like correction to forces

   POTIM  = 0.5000    time-step for ionic-motion
   TEIN   =    0.0    initial temperature
   TEBEG  =    0.0;   TEEND  =   0.0 temperature during run
   SMASS  =  -3.00    Nose mass-parameter (am)
   estimated Nose-frequenzy (Omega)   =  0.10E-29 period in steps = 0.13E+47 mass=  -0.101E-26a.u.
   SCALEE = 1.0000    scale energy and forces
   NPACO  =    256;   APACO  = 10.0  distance and # of slots for P.C.
   PSTRESS=    0.0 pullay stress

  Mass of Ions in am
   POMASS =  12.01  1.00 16.00
  Ionic Valenz
   ZVAL   =   4.00  1.00  6.00
  Atomic Wigner-Seitz radii
   RWIGS  =  -1.00 -1.00 -1.00
  virtual crystal weights 
   VCA    =   1.00  1.00  1.00
   NELECT =      88.0000    total number of electrons
   NUPDOWN=      -1.0000    fix difference up-down

 DOS related values:
   EMIN   =  10.00;   EMAX   =-10.00  energy-range for DOS
   EFERMI =   0.00;   METHOD = LEGACY      
   ISMEAR =     0;   SIGMA  =   0.01  broadening in eV -4-tet -1-fermi 0-gaus

 Electronic relaxation 2 (details)
   IALGO  =     58    algorithm
   LDIAG  =      T    sub-space diagonalisation (order eigenvalues)
   LSUBROT=      F    optimize rotation matrix (better conditioning)
   TURBO    =      0    0=normal 1=particle mesh
   IRESTART =      0    0=no restart 2=restart with 2 vectors
   NREBOOT  =      0    no. of reboots
   NMIN     =      0    reboot dimension
   EREF     =   0.00    reference energy to select bands
   IMIX   =      4    mixing-type and parameters
     AMIX     =   0.40;   BMIX     =  1.00
     AMIX_MAG =   1.60;   BMIX_MAG =  1.00
     AMIN     =   0.10
     WC   =   100.;   INIMIX=   1;  MIXPRE=   1;  MAXMIX= -45

 Intra band minimization:
   WEIMIN = 0.0000     energy-eigenvalue tresh-hold
   EBREAK =  0.39E-09  absolut break condition
   DEPER  =   0.30     relativ break condition  

   TIME   =   0.40     timestep for ELM

  volume/ion in A,a.u.               =       8.74        58.95
  Fermi-wavevector in a.u.,A,eV,Ry     =   1.113651  2.104496 16.874204  1.240219
  Thomas-Fermi vector in A             =   2.250238

 Write flags
   LWAVE        =      F    write WAVECAR
   LDOWNSAMPLE  =      F    k-point downsampling of WAVECAR
   LCHARG       =      F    write CHGCAR
   LVTOT        =      F    write LOCPOT, total local potential
   LVHAR        =      F    write LOCPOT, Hartree potential only
   LELF         =      F    write electronic localiz. function (ELF)
   LORBIT       =      0    0 simple, 1 ext, 2 COOP (PROOUT), +10 PAW based schemes


 Dipole corrections
   LMONO  =      F    monopole corrections only (constant potential shift)
   LDIPOL =      F    correct potential (dipole corrections)
   IDIPOL =      0    1-x, 2-y, 3-z, 4-all directions 
   EPSILON=  1.0000000 bulk dielectric constant

 Exchange correlation treatment:
   GGA     =    --    GGA type
   LEXCH   =     8    internal setting for exchange type
   LIBXC   =     F    Libxc                    
   VOSKOWN =     0    Vosko Wilk Nusair interpolation
   LHFCALC =     F    Hartree Fock is set to
   LHFONE  =     F    Hartree Fock one center treatment
   AEXX    =    0.0000 exact exchange contribution

 Linear response parameters
   LEPSILON=     F    determine dielectric tensor
   LRPA    =     F    only Hartree local field effects (RPA)
   LNABLA  =     F    use nabla operator in PAW spheres
   LVEL    =     F    velocity operator in full k-point grid
   CSHIFT  =0.1000    complex shift for real part using Kramers Kronig
   OMEGAMAX=  -1.0    maximum frequency
   DEG_THRESHOLD= 0.2000000E-02 threshold for treating states as degnerate
   RTIME   =   -0.100 relaxation time in fs
  (WPLASMAI=    0.000 imaginary part of plasma frequency in eV, 0.658/RTIME)
   DFIELD  = 0.0000000 0.0000000 0.0000000 field for delta impulse in time

  Optional k-point grid parameters
   LKPOINTS_OPT  =     F    use optional k-point grid
   KPOINTS_OPT_MODE=     1    mode for optional k-point grid

 Orbital magnetization related:
   ORBITALMAG=     F  switch on orbital magnetization
   LCHIMAG   =     F  perturbation theory with respect to B field
   DQ        =  0.001000  dq finite difference perturbation B field
   LLRAUG    =     F  two centre corrections for induced B field
   LBONE     =     F  B-component reconstruction in AE one-centre
   LVGVCALC  =     T  calculate vGv susceptibility
   LVGVAPPL  =     F  apply vGv susceptibility instead of pGv for G=0

 Random number generation:
   RANDOM_GENERATOR = DEFAULT
   PCG_SEED         = not used


--------------------------------------------------------------------------------------------------------


 Static calculation
 charge density and potential will be updated during run
 non-spin polarized calculation
 Conjugate gradient for all bands (Freysoldt, et al. PRB 79, 241103 (2009))
 preconditioned conjugated gradient                                        
 perform sub-space diagonalisation
    before iterative eigenvector-optimisation
 modified Broyden-mixing scheme, WC =      100.0
 initial mixing is a Kerker type mixing with AMIX =  0.4000 and BMIX =      1.0000
 Hartree-type preconditioning will be used
 using additional bands           20
 reciprocal scheme for non local part
 use partial core corrections
 no Harris-corrections to forces 
 use gradient corrections 
 use of overlap-Matrix (Vanderbilt PP)
 Gauss-broadening in eV      SIGMA  =   0.01


--------------------------------------------------------------------------------------------------------


  energy-cutoff  :     1000.00
  volume of cell :      279.55
      direct lattice vectors                 reciprocal lattice vectors
     6.650000000  0.000000000  0.000000000     0.150375940 -0.000000000  0.026028459
     0.000000000  6.210000000  0.000000000     0.000000000  0.161030596 -0.000000000
    -1.171700000  0.000000000  6.769340000     0.000000000  0.000000000  0.147724889

  length of vectors
     6.650000000  6.210000000  6.869995992     0.152611939  0.161030596  0.147724889



 k-points in units of 2pi/SCALE and weight: auto                                    
   0.00000000  0.00000000  0.00000000       0.016
   0.03759398  0.00000000  0.00650711       0.031
   0.07518797  0.00000000  0.01301423       0.016
   0.00000000  0.04025765  0.00000000       0.031
   0.03759398  0.04025765  0.00650711       0.031
  -0.03759398  0.04025765 -0.00650711       0.031
   0.07518797  0.04025765  0.01301423       0.031
   0.00000000  0.08051530  0.00000000       0.016
   0.03759398  0.08051530  0.00650711       0.031
   0.07518797  0.08051530  0.01301423       0.016
   0.00000000  0.00000000  0.03693122       0.031
   0.03759398  0.00000000  0.04343834       0.031
   0.07518797  0.00000000  0.04994545       0.031
  -0.03759398  0.00000000  0.03042411       0.031
   0.00000000  0.04025765  0.03693122       0.031
   0.00000000  0.04025765 -0.03693122       0.031
   0.03759398  0.04025765  0.04343834       0.031
  -0.03759398  0.04025765 -0.04343834       0.031
   0.07518797  0.04025765  0.04994545       0.031
   0.07518797  0.04025765 -0.02391699       0.031
  -0.03759398  0.04025765  0.03042411       0.031
   0.03759398  0.04025765 -0.03042411       0.031
   0.00000000  0.08051530  0.03693122       0.031
   0.03759398  0.08051530  0.04343834       0.031
   0.07518797  0.08051530  0.04994545       0.031
  -0.03759398  0.08051530  0.03042411       0.031
   0.00000000  0.00000000  0.07386244       0.016
   0.03759398  0.00000000  0.08036956       0.031
   0.07518797  0.00000000  0.08687667       0.016
   0.00000000  0.04025765  0.07386244       0.031
   0.03759398  0.04025765  0.08036956       0.031
  -0.03759398  0.04025765  0.06735533       0.031
   0.07518797  0.04025765  0.08687667       0.031
   0.00000000  0.08051530  0.07386244       0.016
   0.03759398  0.08051530  0.08036956       0.031
   0.07518797  0.08051530  0.08687667       0.016

 k-points in reciprocal lattice and weights: auto                                    
   0.00000000  0.00000000  0.00000000       0.016
   0.25000000  0.00000000  0.00000000       0.031
   0.50000000  0.00000000  0.00000000       0.016
   0.00000000  0.25000000  0.00000000       0.031
   0.25000000  0.25000000  0.00000000       0.031
  -0.25000000  0.25000000  0.00000000       0.031
   0.50000000  0.25000000  0.00000000       0.031
   0.00000000  0.50000000  0.00000000       0.016
   0.25000000  0.50000000  0.00000000       0.031
   0.50000000  0.50000000  0.00000000       0.016
   0.00000000  0.00000000  0.25000000       0.031
   0.25000000  0.00000000  0.25000000       0.031
   0.50000000  0.00000000  0.25000000       0.031
  -0.25000000  0.00000000  0.25000000       0.031
   0.00000000  0.25000000  0.25000000       0.031
   0.00000000  0.25000000 -0.25000000       0.031
   0.25000000  0.25000000  0.25000000       0.031
  -0.25000000  0.25000000 -0.25000000       0.031
   0.50000000  0.25000000  0.25000000       0.031
   0.50000000  0.25000000 -0.25000000       0.031
  -0.25000000  0.25000000  0.25000000       0.031
   0.25000000  0.25000000 -0.25000000       0.031
   0.00000000  0.50000000  0.25000000       0.031
   0.25000000  0.50000000  0.25000000       0.031
   0.50000000  0.50000000  0.25000000       0.031
  -0.25000000  0.50000000  0.25000000       0.031
   0.00000000  0.00000000  0.50000000       0.016
   0.25000000  0.00000000  0.50000000       0.031
   0.50000000  0.00000000  0.50000000       0.016
   0.00000000  0.25000000  0.50000000       0.031
   0.25000000  0.25000000  0.50000000       0.031
  -0.25000000  0.25000000  0.50000000       0.031
   0.50000000  0.25000000  0.50000000       0.031
   0.00000000  0.50000000  0.50000000       0.016
   0.25000000  0.50000000  0.50000000       0.031
   0.50000000  0.50000000  0.50000000       0.016

 position of ions in fractional coordinates (direct lattice) 
   0.43059693  0.16841564  0.44724650
   0.56940268  0.66841159  0.55274790
   0.51771270  0.16969651  0.25724176
   0.48228581  0.66969973  0.74275429
   0.35838781  0.21472831  0.07220366
   0.64160834  0.71473275  0.92779374
   0.17352706  0.07010675  0.06027989
   0.82646995  0.57011022  0.93972011
   0.10136131  0.02429323  0.25395046
   0.89863944  0.52429592  0.74604986
   0.20083075  0.16910404  0.42521482
   0.79917023  0.66910281  0.57478241
   0.64343287  0.28667946  0.27134673
   0.35656550  0.78668247  0.72864681
   0.58546203  0.00898913  0.24701757
   0.41453407  0.50899363  0.75297924
   0.30133295  0.38099579  0.08068798
   0.69865880  0.88100206  0.91931217
   0.42278144  0.19886696  0.93601311
   0.57721532  0.69886590  0.06398403
   0.13747422  0.85380051  0.28911535
   0.86252871  0.35380249  0.71088977
   0.93455552  0.03943410  0.22945221
   0.06544448  0.53943927  0.77054909
   0.15237838  0.33733231  0.39173650
   0.84762096  0.83733151  0.60826215
   0.15555250  0.12383982  0.56611358
   0.84445121  0.62383780  0.43388279
   0.54300723  0.16539660  0.60898915
   0.45699214  0.66538223  0.39100305
   0.08783669  0.99101087  0.90426263
   0.91215324  0.49100782  0.09573715

 position of ions in cartesian coordinates  (Angst):
   2.33943089  1.04586116  3.02756362
   3.13887313  4.15083595  3.74173847
   3.14137928  1.05381535  1.74135694
   2.33691542  4.15883532  5.02795636
   2.29867793  1.33346282  0.48877110
   3.17959951  4.43849035  6.28055129
   1.08332498  0.43536293  0.40805506
   4.39495512  3.54038448  6.36128494
   0.37649894  0.15086096  1.71907703
   5.10180566  3.25587766  5.05026518
   0.83730031  1.05013608  2.87842371
   4.64100946  4.15512845  3.89089757
   3.96089164  1.78027943  1.83683828
   1.51740513  4.88529816  4.93245801
   3.60389202  0.05582253  1.67214589
   1.87438580  3.16085041  5.09717249
   1.90932203  2.36598386  0.54620435
   3.56892295  5.47102280  6.22313664
   1.71476999  1.23496380  6.33619097
   3.76351179  4.33995724  0.43312965
   0.57544710  5.30210115  1.95712011
   4.90286638  2.19711347  4.81225456
   5.94594506  0.24488577  1.55324000
  -0.46764658  3.34991784  5.21610880
   0.55431857  2.09483363  2.65179757
   4.92397862  5.19982866  4.11753328
   0.37110885  0.76904526  3.83221532
   5.10722007  3.87403276  2.93710016
   2.89744551  1.02711290  4.12245462
   2.58085944  4.13202363  2.64683262
  -0.47541052  6.15417747  6.12126120
   5.95364385  3.04915853  0.64807731



--------------------------------------------------------------------------------------------------------


 k-point   1 :   0.0000 0.0000 0.0000  plane waves:   20055
 k-point   2 :   0.2500 0.0000 0.0000  plane waves:   20080
 k-point   3 :   0.5000 0.0000 0.0000  plane waves:   20022
 k-point   4 :   0.0000 0.2500 0.0000  plane waves:   20078
 k-point   5 :   0.2500 0.2500 0.0000  plane waves:   20073
 k-point   6 :  -0.2500 0.2500 0.0000  plane waves:   20073
 k-point   7 :   0.5000 0.2500 0.0000  plane waves:   20092
 k-point   8 :   0.0000 0.5000 0.0000  plane waves:   20108
 k-point   9 :   0.2500 0.5000 0.0000  plane waves:   20100
 k-point  10 :   0.5000 0.5000 0.0000  plane waves:   20112
 k-point  11 :   0.0000 0.0000 0.2500  plane waves:   20054
 k-point  12 :   0.2500 0.0000 0.2500  plane waves:   20057
 k-point  13 :   0.5000 0.0000 0.2500  plane waves:   20056
 k-point  14 :  -0.2500 0.0000 0.2500  plane waves:   20077
 k-point  15 :   0.0000 0.2500 0.2500  plane waves:   20068
 k-point  16 :   0.0000 0.2500-0.2500  plane waves:   20068
 k-point  17 :   0.2500 0.2500 0.2500  plane waves:   20069
 k-point  18 :  -0.2500 0.2500-0.2500  plane waves:   20069
 k-point  19 :   0.5000 0.2500 0.2500  plane waves:   20092
 k-point  20 :   0.5000 0.2500-0.2500  plane waves:   20092
 k-point  21 :  -0.2500 0.2500 0.2500  plane waves:   20079
 k-point  22 :   0.2500 0.2500-0.2500  plane waves:   20079
 k-point  23 :   0.0000 0.5000 0.2500  plane waves:   20068
 k-point  24 :   0.2500 0.5000 0.2500  plane waves:   20082
 k-point  25 :   0.5000 0.5000 0.2500  plane waves:   20104
 k-point  26 :  -0.2500 0.5000 0.2500  plane waves:   20068
 k-point  27 :   0.0000 0.0000 0.5000  plane waves:   20064
 k-point  28 :   0.2500 0.0000 0.5000  plane waves:   20066
 k-point  29 :   0.5000 0.0000 0.5000  plane waves:   20074
 k-point  30 :   0.0000 0.2500 0.5000  plane waves:   20048
 k-point  31 :   0.2500 0.2500 0.5000  plane waves:   20065
 k-point  32 :  -0.2500 0.2500 0.5000  plane waves:   20065
 k-point  33 :   0.5000 0.2500 0.5000  plane waves:   20094
 k-point  34 :   0.0000 0.5000 0.5000  plane waves:   20072
 k-point  35 :   0.2500 0.5000 0.5000  plane waves:   20056
 k-point  36 :   0.5000 0.5000 0.5000  plane waves:   20088

 maximum and minimum number of plane-waves per node :       648      600

 maximum number of plane-waves:     20112
 maximum index in each direction: 
   IXMAX=   17   IYMAX=   16   IZMAX=   17
   IXMIN=  -17   IYMIN=  -16   IZMIN=  -18


 parallel 3D FFT for wavefunctions:
    minimum data exchange during FFTs selected (reduces bandwidth)
 parallel 3D FFT for charge:
    minimum data exchange during FFTs selected (reduces bandwidth)


 total amount of memory used by VASP MPI-rank0    57624. kBytes
=======================================================================

   base      :      30000. kBytes
   nonl-proj :       4691. kBytes
   fftplans  :       1556. kBytes
   grid      :       3680. kBytes
   one-center:          3. kBytes
   wavefun   :      17694. kBytes

     INWAV:  cpu time      0.0001: real time      0.0003
 Broyden mixing: mesh for mixing (old mesh)
   NGX = 35   NGY = 33   NGZ = 35
  (NGX  =140   NGY  =128   NGZ  =144)
  gives a total of  40425 points

 initial charge density was supplied:
 charge density of overlapping atoms calculated
 number of electron      88.0000000 magnetization 
 keeping initial charge density in first step


--------------------------------------------------------------------------------------------------------


 Maximum index for augmentation-charges          515 (set IRDMAX)


--------------------------------------------------------------------------------------------------------


 First call to EWALD:  gamma=   0.271
 Maximum number of real-space cells 3x 3x 3
 Maximum number of reciprocal cells 3x 3x 3

    FEWALD:  cpu time      0.0025: real time      0.0025


--------------------------------------- Ionic step        1  -------------------------------------------




--------------------------------------- Iteration      1(   1)  ---------------------------------------


    POTLOK:  cpu time      0.1083: real time      0.1095
    SETDIJ:  cpu time      0.3077: real time      0.3082
    TRIAL :  cpu time      2.7761: real time      2.7789
    CORREC:  cpu time      0.0028: real time      0.0028
    --------------------------------------------
      LOOP:  cpu time      3.2065: real time      3.2110

 eigenvalue-minimisations  :  4608
 total energy-change (2. order) : 0.6248468E+03  (-0.6702006E+04)
 number of electron      88.0000000 magnetization 
 augmentation part       88.0000000 magnetization 

 Free energy of the ion-electron system (eV)
  ---------------------------------------------------
  alpha Z        PSCENC =        83.55220166
  Ewald energy   TEWEN  =     -1830.01301394
  -Hartree energ DENC   =     -1561.99897331
  -exchange      EXHF   =         0.00000000
  -V(xc)+E(xc)   XCENC  =       298.82424680
  PAW double counting   =      2705.00902165    -2685.75773302
  entropy T*S    EENTRO =        -0.00020049
  eigenvalues    EBANDS =       -79.85520518
  atomic energy  EATOM  =      3695.08646324
  ---------------------------------------------------
  free energy    TOTEN  =       624.84680740 eV

  energy without entropy =      624.84700790  energy(sigma->0) =      624.84690765


--------------------------------------------------------------------------------------------------------




--------------------------------------- Iteration      1(   2)  ---------------------------------------


    TRIAL :  cpu time      3.0630: real time      3.0645
    CORREC:  cpu time      0.0003: real time      0.0003
    --------------------------------------------
      LOOP:  cpu time      3.0801: real time      3.0956

 eigenvalue-minimisations  :  5944
 total energy-change (2. order) :-0.7630162E+03  (-0.7253236E+03)
 number of electron      88.0000000 magnetization 
 augmentation part       88.0000000 magnetization 

 Free energy of the ion-electron system (eV)
  ---------------------------------------------------
  alpha Z        PSCENC =        83.55220166
  Ewald energy   TEWEN  =     -1830.01301394
  -Hartree energ DENC   =     -1561.99897331
  -exchange      EXHF   =         0.00000000
  -V(xc)+E(xc)   XCENC  =       298.82424680
  PAW double counting   =      2705.00902165    -2685.75773302
  entropy T*S    EENTRO =        -0.00000000
  eigenvalues    EBANDS =      -842.87160709
  atomic energy  EATOM  =      3695.08646324
  ---------------------------------------------------
  free energy    TOTEN  =      -138.16939401 eV

  energy without entropy =     -138.16939401  energy(sigma->0) =     -138.16939401


--------------------------------------------------------------------------------------------------------




--------------------------------------- Iteration      1(   3)  ---------------------------------------


    TRIAL :  cpu time      3.0016: real time      3.0032
    CORREC:  cpu time      0.0008: real time      0.0008
    --------------------------------------------
      LOOP:  cpu time      3.0162: real time      3.0332

 eigenvalue-minimisations  :  5696
 total energy-change (2. order) :-0.1128650E+03  (-0.1113886E+03)
 number of electron      88.0000000 magnetization 
 augmentation part       88.0000000 magnetization 

 Free energy of the ion-electron system (eV)
  ---------------------------------------------------
  alpha Z        PSCENC =        83.55220166
  Ewald energy   TEWEN  =     -1830.01301394
  -Hartree energ DENC   =     -1561.99897331
  -exchange      EXHF   =         0.00000000
  -V(xc)+E(xc)   XCENC  =       298.82424680
  PAW double counting   =      2705.00902165    -2685.75773302
  entropy T*S    EENTRO =        -0.00000000
  eigenvalues    EBANDS =      -955.73656645
  atomic energy  EATOM  =      3695.08646324
  ---------------------------------------------------
  free energy    TOTEN  =      -251.03435338 eV

  energy without entropy =     -251.03435338  energy(sigma->0) =     -251.03435338


--------------------------------------------------------------------------------------------------------




--------------------------------------- Iteration      1(   4)  ---------------------------------------


    TRIAL :  cpu time      3.0204: real time      3.0219
    CORREC:  cpu time      0.0006: real time      0.0006
    --------------------------------------------
      LOOP:  cpu time      3.0346: real time      3.0511

 eigenvalue-minimisations  :  5856
 total energy-change (2. order) :-0.3635619E+01  (-0.3619068E+01)
 number of electron      88.0000000 magnetization 
 augmentation part       88.0000000 magnetization 

 Free energy of the ion-electron system (eV)
  ---------------------------------------------------
  alpha Z        PSCENC =        83.55220166
  Ewald energy   TEWEN  =     -1830.01301394
  -Hartree energ DENC   =     -1561.99897331
  -exchange      EXHF   =         0.00000000
  -V(xc)+E(xc)   XCENC  =       298.82424680
  PAW double counting   =      2705.00902165    -2685.75773302
  entropy T*S    EENTRO =        -0.00000000
  eigenvalues    EBANDS =      -959.37218505
  atomic energy  EATOM  =      3695.08646324
  ---------------------------------------------------
  free energy    TOTEN  =      -254.66997197 eV

  energy without entropy =     -254.66997197  energy(sigma->0) =     -254.66997197


--------------------------------------------------------------------------------------------------------




--------------------------------------- Iteration      1(   5)  ---------------------------------------


    TRIAL :  cpu time      3.1377: real time      3.1396
    CORREC:  cpu time      0.0004: real time      0.0004
    CHARGE:  cpu time      0.2058: real time      0.2061
    --------------------------------------------
      LOOP:  cpu time      3.3610: real time      3.3755

 eigenvalue-minimisations  :  6184
 total energy-change (2. order) :-0.1215454E+00  (-0.1214549E+00)
 number of electron      88.0000000 magnetization 
 augmentation part        0.1817249 magnetization 

 Free energy of the ion-electron system (eV)
  ---------------------------------------------------
  alpha Z        PSCENC =        83.55220166
  Ewald energy   TEWEN  =     -1830.01301394
  -Hartree energ DENC   =     -1561.99897331
  -exchange      EXHF   =         0.00000000
  -V(xc)+E(xc)   XCENC  =       298.82424680
  PAW double counting   =      2705.00902165    -2685.75773302
  entropy T*S    EENTRO =        -0.00000000
  eigenvalues    EBANDS =      -959.49373042
  atomic energy  EATOM  =      3695.08646324
  ---------------------------------------------------
  free energy    TOTEN  =      -254.79151734 eV

  energy without entropy =     -254.79151734  energy(sigma->0) =     -254.79151734


--------------------------------------------------------------------------------------------------------




--------------------------------------- Iteration      1(   6)  ---------------------------------------


    POTLOK:  cpu time      0.0865: real time      0.0865
    SETDIJ:  cpu time      0.3049: real time      0.3049
    TRIAL :  cpu time      2.1040: real time      2.1067
    CORREC:  cpu time      1.2062: real time      1.2071
    CHARGE:  cpu time      0.2070: real time      0.2073
    --------------------------------------------
      LOOP:  cpu time      3.9208: real time      3.9413

 eigenvalue-minimisations  :     0
 total energy-change (2. order) : 0.5206176E+02  (-0.1099883E+02)
 number of electron      88.0000000 magnetization 
 augmentation part        0.1101131 magnetization 

 Free energy of the ion-electron system (eV)
  ---------------------------------------------------
  alpha Z        PSCENC =        83.55220166
  Ewald energy   TEWEN  =     -1830.01301394
  -Hartree energ DENC   =     -1984.76159982
  -exchange      EXHF   =         0.00000000
  -V(xc)+E(xc)   XCENC  =       340.37111126
  PAW double counting   =     40089.66758560   -40074.17380036
  entropy T*S    EENTRO =        -0.00000000
  eigenvalues    EBANDS =      -522.45870676
  atomic energy  EATOM  =      3695.08646324
  ---------------------------------------------------
  free energy    TOTEN  =      -202.72975912 eV

  energy without entropy =     -202.72975912  energy(sigma->0) =     -202.72975912


--------------------------------------------------------------------------------------------------------




--------------------------------------- Iteration      1(   7)  ---------------------------------------


    POTLOK:  cpu time      0.0866: real time      0.0866
    SETDIJ:  cpu time      0.3041: real time      0.3041
    TRIAL :  cpu time      2.0360: real time      2.0369
    CORREC:  cpu time      1.2028: real time      1.2033
    CHARGE:  cpu time      0.1915: real time      0.1919
    --------------------------------------------
      LOOP:  cpu time      3.8346: real time      3.8524

 eigenvalue-minimisations  :     0
 total energy-change (2. order) :-0.1100187E+02  (-0.1588017E+01)
 number of electron      88.0000000 magnetization 
 augmentation part        0.0910973 magnetization 

 Free energy of the ion-electron system (eV)
  ---------------------------------------------------
  alpha Z        PSCENC =        83.55220166
  Ewald energy   TEWEN  =     -1830.01301394
  -Hartree energ DENC   =     -1801.38261190
  -exchange      EXHF   =         0.00000000
  -V(xc)+E(xc)   XCENC  =       326.27438714
  PAW double counting   =     46720.40175269   -46702.51515546
  entropy T*S    EENTRO =        -0.00000000
  eigenvalues    EBANDS =      -705.13565354
  atomic energy  EATOM  =      3695.08646324
  ---------------------------------------------------
  free energy    TOTEN  =      -213.73163011 eV

  energy without entropy =     -213.73163011  energy(sigma->0) =     -213.73163011


--------------------------------------------------------------------------------------------------------




--------------------------------------- Iteration      1(   8)  ---------------------------------------


    POTLOK:  cpu time      0.0856: real time      0.0856
    SETDIJ:  cpu time      0.3049: real time      0.3049
    TRIAL :  cpu time      2.1033: real time      2.1043
    CORREC:  cpu time      1.2269: real time      1.2275
    CHARGE:  cpu time      0.1917: real time      0.1917
    --------------------------------------------
      LOOP:  cpu time      3.9352: real time      3.9442

 eigenvalue-minimisations  :     0
 total energy-change (2. order) :-0.1596396E+01  (-0.5764597E+00)
 number of electron      88.0000000 magnetization 
 augmentation part        0.1003495 magnetization 

 Free energy of the ion-electron system (eV)
  ---------------------------------------------------
  alpha Z        PSCENC =        83.55220166
  Ewald energy   TEWEN  =     -1830.01301394
  -Hartree energ DENC   =     -1801.70647745
  -exchange      EXHF   =         0.00000000
  -V(xc)+E(xc)   XCENC  =       326.35497707
  PAW double counting   =     48237.19890557   -48219.23006354
  entropy T*S    EENTRO =        -0.00000000
  eigenvalues    EBANDS =      -706.57101894
  atomic energy  EATOM  =      3695.08646324
  ---------------------------------------------------
  free energy    TOTEN  =      -215.32802633 eV

  energy without entropy =     -215.32802633  energy(sigma->0) =     -215.32802633


--------------------------------------------------------------------------------------------------------




--------------------------------------- Iteration      1(   9)  ---------------------------------------


    POTLOK:  cpu time      0.0857: real time      0.0862
    SETDIJ:  cpu time      0.3021: real time      0.3021
    TRIAL :  cpu time      2.0379: real time      2.0389
    CORREC:  cpu time      1.2038: real time      1.2044
    CHARGE:  cpu time      0.1930: real time      0.1930
    --------------------------------------------
      LOOP:  cpu time      3.8344: real time      3.8549

 eigenvalue-minimisations  :     0
 total energy-change (2. order) :-0.5764211E+00  (-0.1611109E+00)
 number of electron      88.0000000 magnetization 
 augmentation part        0.1037062 magnetization 

 Free energy of the ion-electron system (eV)
  ---------------------------------------------------
  alpha Z        PSCENC =        83.55220166
  Ewald energy   TEWEN  =     -1830.01301394
  -Hartree energ DENC   =     -1797.73950082
  -exchange      EXHF   =         0.00000000
  -V(xc)+E(xc)   XCENC  =       326.16762317
  PAW double counting   =     50139.08438584   -50121.06449663
  entropy T*S    EENTRO =        -0.00000000
  eigenvalues    EBANDS =      -710.97810995
  atomic energy  EATOM  =      3695.08646324
  ---------------------------------------------------
  free energy    TOTEN  =      -215.90444742 eV

  energy without entropy =     -215.90444742  energy(sigma->0) =     -215.90444742


--------------------------------------------------------------------------------------------------------




--------------------------------------- Iteration      1(  10)  ---------------------------------------


    POTLOK:  cpu time      0.0853: real time      0.0853
    SETDIJ:  cpu time      0.3031: real time      0.3036
    TRIAL :  cpu time      2.0393: real time      2.0403
    CORREC:  cpu time      1.1977: real time      1.1984
    CHARGE:  cpu time      0.1918: real time      0.1918
    --------------------------------------------
      LOOP:  cpu time      3.8475: real time      3.8499

 eigenvalue-minimisations  :     0
 total energy-change (2. order) :-0.1609382E+00  (-0.4223292E-01)
 number of electron      88.0000000 magnetization 
 augmentation part        0.1054667 magnetization 

 Free energy of the ion-electron system (eV)
  ---------------------------------------------------
  alpha Z        PSCENC =        83.55220166
  Ewald energy   TEWEN  =     -1830.01301394
  -Hartree energ DENC   =     -1791.12867741
  -exchange      EXHF   =         0.00000000
  -V(xc)+E(xc)   XCENC  =       325.83673575
  PAW double counting   =     49856.70024316   -49838.67042285
  entropy T*S    EENTRO =        -0.00000000
  eigenvalues    EBANDS =      -717.42891521
  atomic energy  EATOM  =      3695.08646324
  ---------------------------------------------------
  free energy    TOTEN  =      -216.06538560 eV

  energy without entropy =     -216.06538560  energy(sigma->0) =     -216.06538560


--------------------------------------------------------------------------------------------------------




--------------------------------------- Iteration      1(  11)  ---------------------------------------


    POTLOK:  cpu time      0.0855: real time      0.0855
    SETDIJ:  cpu time      0.3024: real time      0.3029
    TRIAL :  cpu time      2.0796: real time      2.0806
    CORREC:  cpu time      1.2035: real time      1.2042
    CHARGE:  cpu time      0.1920: real time      0.1920
    --------------------------------------------
      LOOP:  cpu time      3.8751: real time      3.8946

 eigenvalue-minimisations  :     0
 total energy-change (2. order) :-0.4221202E-01  (-0.1048961E-01)
 number of electron      88.0000000 magnetization 
 augmentation part        0.1037785 magnetization 

 Free energy of the ion-electron system (eV)
  ---------------------------------------------------
  alpha Z        PSCENC =        83.55220166
  Ewald energy   TEWEN  =     -1830.01301394
  -Hartree energ DENC   =     -1790.75102522
  -exchange      EXHF   =         0.00000000
  -V(xc)+E(xc)   XCENC  =       325.81303478
  PAW double counting   =     49301.70643791   -49283.71730130
  entropy T*S    EENTRO =        -0.00000000
  eigenvalues    EBANDS =      -717.78439476
  atomic energy  EATOM  =      3695.08646324
  ---------------------------------------------------
  free energy    TOTEN  =      -216.10759763 eV

  energy without entropy =     -216.10759763  energy(sigma->0) =     -216.10759763


--------------------------------------------------------------------------------------------------------




--------------------------------------- Iteration      1(  12)  ---------------------------------------


    POTLOK:  cpu time      0.0857: real time      0.0857
    SETDIJ:  cpu time      0.3029: real time      0.3029
    TRIAL :  cpu time      2.0338: real time      2.0353
    CORREC:  cpu time      1.2004: real time      1.2011
    CHARGE:  cpu time      0.1923: real time      0.1923
    --------------------------------------------
      LOOP:  cpu time      3.8277: real time      3.8481

 eigenvalue-minimisations  :     0
 total energy-change (2. order) :-0.1047341E-01  (-0.2593992E-02)
 number of electron      88.0000000 magnetization 
 augmentation part        0.1037020 magnetization 

 Free energy of the ion-electron system (eV)
  ---------------------------------------------------
  alpha Z        PSCENC =        83.55220166
  Ewald energy   TEWEN  =     -1830.01301394
  -Hartree energ DENC   =     -1790.03766132
  -exchange      EXHF   =         0.00000000
  -V(xc)+E(xc)   XCENC  =       325.71364694
  PAW double counting   =     49141.85587558   -49123.85758893
  entropy T*S    EENTRO =        -0.00000000
  eigenvalues    EBANDS =      -718.41799426
  atomic energy  EATOM  =      3695.08646324
  ---------------------------------------------------
  free energy    TOTEN  =      -216.11807104 eV

  energy without entropy =     -216.11807104  energy(sigma->0) =     -216.11807104


--------------------------------------------------------------------------------------------------------




--------------------------------------- Iteration      1(  13)  ---------------------------------------


    POTLOK:  cpu time      0.0856: real time      0.0856
    SETDIJ:  cpu time      0.3080: real time      0.3080
    TRIAL :  cpu time      2.0608: real time      2.0618
    CORREC:  cpu time      1.1932: real time      1.1943
    CHARGE:  cpu time      0.1932: real time      0.1932
    --------------------------------------------
      LOOP:  cpu time      3.8577: real time      3.8734

 eigenvalue-minimisations  :     0
 total energy-change (2. order) :-0.2589367E-02  (-0.6497295E-03)
 number of electron      88.0000000 magnetization 
 augmentation part        0.1037728 magnetization 

 Free energy of the ion-electron system (eV)
  ---------------------------------------------------
  alpha Z        PSCENC =        83.55220166
  Ewald energy   TEWEN  =     -1830.01301394
  -Hartree energ DENC   =     -1790.16396384
  -exchange      EXHF   =         0.00000000
  -V(xc)+E(xc)   XCENC  =       325.72048439
  PAW double counting   =     49030.29107521   -49012.29785929
  entropy T*S    EENTRO =        -0.00000000
  eigenvalues    EBANDS =      -718.29604782
  atomic energy  EATOM  =      3695.08646324
  ---------------------------------------------------
  free energy    TOTEN  =      -216.12066040 eV

  energy without entropy =     -216.12066040  energy(sigma->0) =     -216.12066040


--------------------------------------------------------------------------------------------------------




--------------------------------------- Iteration      1(  14)  ---------------------------------------


    POTLOK:  cpu time      0.0854: real time      0.0854
    SETDIJ:  cpu time      0.3038: real time      0.3038
    TRIAL :  cpu time      2.0414: real time      2.0426
    CORREC:  cpu time      1.2004: real time      1.2009
    CHARGE:  cpu time      0.1930: real time      0.1935
    --------------------------------------------
      LOOP:  cpu time      3.8408: real time      3.8562

 eigenvalue-minimisations  :     0
 total energy-change (2. order) :-0.6508128E-03  (-0.1870046E-03)
 number of electron      88.0000000 magnetization 
 augmentation part        0.1039807 magnetization 

 Free energy of the ion-electron system (eV)
  ---------------------------------------------------
  alpha Z        PSCENC =        83.55220166
  Ewald energy   TEWEN  =     -1830.01301394
  -Hartree energ DENC   =     -1789.88095432
  -exchange      EXHF   =         0.00000000
  -V(xc)+E(xc)   XCENC  =       325.69553303
  PAW double counting   =     48993.44689188   -48975.45117832
  entropy T*S    EENTRO =        -0.00000000
  eigenvalues    EBANDS =      -718.55725444
  atomic energy  EATOM  =      3695.08646324
  ---------------------------------------------------
  free energy    TOTEN  =      -216.12131122 eV

  energy without entropy =     -216.12131122  energy(sigma->0) =     -216.12131122


--------------------------------------------------------------------------------------------------------




--------------------------------------- Iteration      1(  15)  ---------------------------------------


    POTLOK:  cpu time      0.0852: real time      0.0852
    SETDIJ:  cpu time      0.3036: real time      0.3036
    TRIAL :  cpu time      2.0411: real time      2.0421
    CORREC:  cpu time      1.2006: real time      1.2012
    CHARGE:  cpu time      0.1922: real time      0.1922
    --------------------------------------------
      LOOP:  cpu time      3.8521: real time      3.8540

 eigenvalue-minimisations  :     0
 total energy-change (2. order) :-0.1867466E-03  (-0.5770319E-04)
 number of electron      88.0000000 magnetization 
 augmentation part        0.1039868 magnetization 

 Free energy of the ion-electron system (eV)
  ---------------------------------------------------
  alpha Z        PSCENC =        83.55220166
  Ewald energy   TEWEN  =     -1830.01301394
  -Hartree energ DENC   =     -1790.12848458
  -exchange      EXHF   =         0.00000000
  -V(xc)+E(xc)   XCENC  =       325.70919662
  PAW double counting   =     48953.70880168   -48935.71566623
  entropy T*S    EENTRO =        -0.00000000
  eigenvalues    EBANDS =      -718.32099641
  atomic energy  EATOM  =      3695.08646324
  ---------------------------------------------------
  free energy    TOTEN  =      -216.12149796 eV

  energy without entropy =     -216.12149796  energy(sigma->0) =     -216.12149796


--------------------------------------------------------------------------------------------------------




--------------------------------------- Iteration      1(  16)  ---------------------------------------


    POTLOK:  cpu time      0.0855: real time      0.0855
    SETDIJ:  cpu time      0.3032: real time      0.3032
    TRIAL :  cpu time      2.0649: real time      2.0660
    CORREC:  cpu time      1.1936: real time      1.1941
    CHARGE:  cpu time      0.2002: real time      0.2002
    --------------------------------------------
      LOOP:  cpu time      3.8708: real time      3.8785

 eigenvalue-minimisations  :     0
 total energy-change (2. order) :-0.5889790E-04  (-0.1718848E-04)
 number of electron      88.0000000 magnetization 
 augmentation part        0.1040531 magnetization 

 Free energy of the ion-electron system (eV)
  ---------------------------------------------------
  alpha Z        PSCENC =        83.55220166
  Ewald energy   TEWEN  =     -1830.01301394
  -Hartree energ DENC   =     -1790.07587163
  -exchange      EXHF   =         0.00000000
  -V(xc)+E(xc)   XCENC  =       325.70570197
  PAW double counting   =     48946.04707363   -48928.05292162
  entropy T*S    EENTRO =        -0.00000000
  eigenvalues    EBANDS =      -718.37119017
  atomic energy  EATOM  =      3695.08646324
  ---------------------------------------------------
  free energy    TOTEN  =      -216.12155686 eV

  energy without entropy =     -216.12155686  energy(sigma->0) =     -216.12155686


--------------------------------------------------------------------------------------------------------




--------------------------------------- Iteration      1(  17)  ---------------------------------------


    POTLOK:  cpu time      0.0859: real time      0.0859
    SETDIJ:  cpu time      0.3023: real time      0.3029
    TRIAL :  cpu time      2.0487: real time      2.0496
    CORREC:  cpu time      1.2207: real time      1.2213
    CHARGE:  cpu time      0.1921: real time      0.1921
    --------------------------------------------
      LOOP:  cpu time      3.8653: real time      3.8816

 eigenvalue-minimisations  :     0
 total energy-change (2. order) :-0.1752844E-04  (-0.5046619E-05)
 number of electron      88.0000000 magnetization 
 augmentation part        0.1040242 magnetization 

 Free energy of the ion-electron system (eV)
  ---------------------------------------------------
  alpha Z        PSCENC =        83.55220166
  Ewald energy   TEWEN  =     -1830.01301394
  -Hartree energ DENC   =     -1790.10985707
  -exchange      EXHF   =         0.00000000
  -V(xc)+E(xc)   XCENC  =       325.70874476
  PAW double counting   =     48950.98879651   -48932.99494846
  entropy T*S    EENTRO =        -0.00000000
  eigenvalues    EBANDS =      -718.33996108
  atomic energy  EATOM  =      3695.08646324
  ---------------------------------------------------
  free energy    TOTEN  =      -216.12157439 eV

  energy without entropy =     -216.12157439  energy(sigma->0) =     -216.12157439


--------------------------------------------------------------------------------------------------------




--------------------------------------- Iteration      1(  18)  ---------------------------------------


    POTLOK:  cpu time      0.0853: real time      0.0853
    SETDIJ:  cpu time      0.3037: real time      0.3042
    TRIAL :  cpu time      2.0370: real time      2.0381
    CORREC:  cpu time      1.2063: real time      1.2069
    CHARGE:  cpu time      0.1919: real time      0.1919
    --------------------------------------------
      LOOP:  cpu time      3.8537: real time      3.8561

 eigenvalue-minimisations  :     0
 total energy-change (2. order) :-0.5015201E-05  (-0.1462808E-05)
 number of electron      88.0000000 magnetization 
 augmentation part        0.1040326 magnetization 

 Free energy of the ion-electron system (eV)
  ---------------------------------------------------
  alpha Z        PSCENC =        83.55220166
  Ewald energy   TEWEN  =     -1830.01301394
  -Hartree energ DENC   =     -1790.11121771
  -exchange      EXHF   =         0.00000000
  -V(xc)+E(xc)   XCENC  =       325.70858618
  PAW double counting   =     48956.74145277   -48938.74732180
  entropy T*S    EENTRO =        -0.00000000
  eigenvalues    EBANDS =      -718.33872981
  atomic energy  EATOM  =      3695.08646324
  ---------------------------------------------------
  free energy    TOTEN  =      -216.12157941 eV

  energy without entropy =     -216.12157941  energy(sigma->0) =     -216.12157941


--------------------------------------------------------------------------------------------------------




--------------------------------------- Iteration      1(  19)  ---------------------------------------


    POTLOK:  cpu time      0.0855: real time      0.0855
    SETDIJ:  cpu time      0.3050: real time      0.3055
    TRIAL :  cpu time      2.0387: real time      2.0398
    CORREC:  cpu time      1.2047: real time      1.2053
    CHARGE:  cpu time      0.1916: real time      0.1916
    --------------------------------------------
      LOOP:  cpu time      3.8382: real time      3.8573

 eigenvalue-minimisations  :     0
 total energy-change (2. order) :-0.1421489E-05  (-0.4347527E-06)
 number of electron      88.0000000 magnetization 
 augmentation part        0.1040236 magnetization 

 Free energy of the ion-electron system (eV)
  ---------------------------------------------------
  alpha Z        PSCENC =        83.55220166
  Ewald energy   TEWEN  =     -1830.01301394
  -Hartree energ DENC   =     -1790.11726612
  -exchange      EXHF   =         0.00000000
  -V(xc)+E(xc)   XCENC  =       325.70946614
  PAW double counting   =     48958.78692893   -48940.79299819
  entropy T*S    EENTRO =        -0.00000000
  eigenvalues    EBANDS =      -718.33336255
  atomic energy  EATOM  =      3695.08646324
  ---------------------------------------------------
  free energy    TOTEN  =      -216.12158083 eV

  energy without entropy =     -216.12158083  energy(sigma->0) =     -216.12158083


--------------------------------------------------------------------------------------------------------




--------------------------------------- Iteration      1(  20)  ---------------------------------------


    POTLOK:  cpu time      0.0854: real time      0.0854
    SETDIJ:  cpu time      0.3050: real time      0.3050
    TRIAL :  cpu time      2.0505: real time      2.0515
    CORREC:  cpu time      1.2764: real time      1.2774
    CHARGE:  cpu time      0.1914: real time      0.1914
    --------------------------------------------
      LOOP:  cpu time      3.9228: real time      3.9400

 eigenvalue-minimisations  :     0
 total energy-change (2. order) :-0.4137983E-06  (-0.3094110E-06)
 number of electron      88.0000000 magnetization 
 augmentation part        0.1040327 magnetization 

 Free energy of the ion-electron system (eV)
  ---------------------------------------------------
  alpha Z        PSCENC =        83.55220166
  Ewald energy   TEWEN  =     -1830.01301394
  -Hartree energ DENC   =     -1790.10914032
  -exchange      EXHF   =         0.00000000
  -V(xc)+E(xc)   XCENC  =       325.70893185
  PAW double counting   =     48959.76240108   -48941.76837733
  entropy T*S    EENTRO =        -0.00000000
  eigenvalues    EBANDS =      -718.34104747
  atomic energy  EATOM  =      3695.08646324
  ---------------------------------------------------
  free energy    TOTEN  =      -216.12158124 eV

  energy without entropy =     -216.12158124  energy(sigma->0) =     -216.12158124


--------------------------------------------------------------------------------------------------------




--------------------------------------- Iteration      1(  21)  ---------------------------------------


    POTLOK:  cpu time      0.0854: real time      0.0854
    SETDIJ:  cpu time      0.3032: real time      0.3032
    TRIAL :  cpu time      2.0418: real time      2.0428
    CORREC:  cpu time      1.2360: real time      1.2370
    CHARGE:  cpu time      0.1918: real time      0.1918
    --------------------------------------------
      LOOP:  cpu time      3.8711: real time      3.8899

 eigenvalue-minimisations  :     0
 total energy-change (2. order) : 0.8858478E-07  (-0.2698345E-06)
 number of electron      88.0000000 magnetization 
 augmentation part        0.1040233 magnetization 

 Free energy of the ion-electron system (eV)
  ---------------------------------------------------
  alpha Z        PSCENC =        83.55220166
  Ewald energy   TEWEN  =     -1830.01301394
  -Hartree energ DENC   =     -1790.12164577
  -exchange      EXHF   =         0.00000000
  -V(xc)+E(xc)   XCENC  =       325.70977203
  PAW double counting   =     48959.42304096   -48941.42921605
  entropy T*S    EENTRO =        -0.00000000
  eigenvalues    EBANDS =      -718.32918328
  atomic energy  EATOM  =      3695.08646324
  ---------------------------------------------------
  free energy    TOTEN  =      -216.12158115 eV

  energy without entropy =     -216.12158115  energy(sigma->0) =     -216.12158115


--------------------------------------------------------------------------------------------------------




--------------------------------------- Iteration      1(  22)  ---------------------------------------


    POTLOK:  cpu time      0.0855: real time      0.0855
    SETDIJ:  cpu time      0.3055: real time      0.3056
    TRIAL :  cpu time      2.0726: real time      2.0736
    CORREC:  cpu time      1.1918: real time      1.1924
    CHARGE:  cpu time      0.1955: real time      0.1959
    --------------------------------------------
      LOOP:  cpu time      3.8628: real time      3.8820

 eigenvalue-minimisations  :     0
 total energy-change (2. order) :-0.2512897E-06  (-0.3630101E-07)
 number of electron      88.0000000 magnetization 
 augmentation part        0.1040235 magnetization 

 Free energy of the ion-electron system (eV)
  ---------------------------------------------------
  alpha Z        PSCENC =        83.55220166
  Ewald energy   TEWEN  =     -1830.01301394
  -Hartree energ DENC   =     -1790.11117670
  -exchange      EXHF   =         0.00000000
  -V(xc)+E(xc)   XCENC  =       325.70904186
  PAW double counting   =     48959.67883135   -48941.68486226
  entropy T*S    EENTRO =        -0.00000000
  eigenvalues    EBANDS =      -718.33906661
  atomic energy  EATOM  =      3695.08646324
  ---------------------------------------------------
  free energy    TOTEN  =      -216.12158140 eV

  energy without entropy =     -216.12158140  energy(sigma->0) =     -216.12158140


--------------------------------------------------------------------------------------------------------




--------------------------------------- Iteration      1(  23)  ---------------------------------------


    POTLOK:  cpu time      0.0852: real time      0.0852
    SETDIJ:  cpu time      0.3043: real time      0.3043
    TRIAL :  cpu time      2.0321: real time      2.0332
    CORREC:  cpu time      1.2482: real time      1.2488
    EDDIAG:  cpu time      0.6078: real time      0.6085
    CHARGE:  cpu time      0.1917: real time      0.1917
    --------------------------------------------
      LOOP:  cpu time      4.4993: real time      4.5020

 eigenvalue-minimisations  :     0
 total energy-change (2. order) :-0.3221794E-07  (-0.1290195E-07)
 number of electron      88.0000000 magnetization 
 augmentation part        0.1040246 magnetization 

 Free energy of the ion-electron system (eV)
  ---------------------------------------------------
  alpha Z        PSCENC =        83.55220166
  Ewald energy   TEWEN  =     -1830.01301394
  -Hartree energ DENC   =     -1790.11061206
  -exchange      EXHF   =         0.00000000
  -V(xc)+E(xc)   XCENC  =       325.70902168
  PAW double counting   =     48959.68565007   -48941.69167574
  entropy T*S    EENTRO =        -0.00000000
  eigenvalues    EBANDS =      -718.33961635
  atomic energy  EATOM  =      3695.08646324
  ---------------------------------------------------
  free energy    TOTEN  =      -216.12158144 eV

  energy without entropy =     -216.12158144  energy(sigma->0) =     -216.12158144


--------------------------------------------------------------------------------------------------------


  average scaling for gradient   0.8249


 average (electrostatic) potential at core
  the test charge radii are     0.5770  0.4325  0.5955
  (the norm of the test charge is              1.0000)
       1 -85.4584       2 -85.4585       3 -83.2997       4 -83.2998       5 -83.1835
       6 -83.1836       7 -85.3656       8 -85.3656       9 -83.2030      10 -83.2030
      11 -83.1798      12 -83.1799      13 -42.1246      14 -42.1250      15 -42.3652
      16 -42.3653      17 -42.2096      18 -42.2077      19 -41.9440      20 -41.9440
      21 -42.0612      22 -42.0604      23 -42.1641      24 -42.1642      25 -42.1887
      26 -42.1873      27 -41.8929      28 -41.8928      29-117.8704      30-117.8704
      31-117.7624      32-117.7625



 E-fermi :  -0.4194     XC(G=0):  -8.7843     alpha+bet : -7.2469

[...]
      2     -22.1521      2.00000
      3     -22.1093      2.00000
      4     -22.0628      2.00000
      5     -16.4547      2.00000
      6     -16.3427      2.00000
      7     -14.7251      2.00000
      8     -14.5648      2.00000
      9     -13.0014      2.00000
     10     -12.9974      2.00000
     11     -11.5125      2.00000
     12     -11.4583      2.00000
     13      -9.1380      2.00000
     14      -9.0846      2.00000
     15      -7.8609      2.00000
     16      -7.7644      2.00000
     17      -7.5615      2.00000
     18      -7.4519      2.00000
     19      -6.8876      2.00000
     20      -6.8150      2.00000
     21      -6.6938      2.00000
     22      -6.5977      2.00000
     23      -5.9809      2.00000
     24      -5.7729      2.00000
     25      -5.5648      2.00000
     26      -5.4065      2.00000
     27      -5.2339      2.00000
     28      -5.0611      2.00000
     29      -4.8908      2.00000
     30      -4.7556      2.00000
     31      -4.6682      2.00000
     32      -4.6491      2.00000
     33      -4.3015      2.00000
     34      -4.0164      2.00000
     35      -3.8267      2.00000
     36      -3.6285      2.00000
     37      -3.4909      2.00000
     38      -3.4236      2.00000
     39      -3.0939      2.00000
     40      -2.9215      2.00000
     41      -0.8599      2.00000
     42      -0.7425      2.00000
     43      -0.6254      2.00000
     44      -0.5508      2.00000
     45       3.2526      0.00000
     46       3.6666      0.00000
     47       3.6925      0.00000
     48       3.8914      0.00000
     49       6.2481      0.00000
     50       6.4249      0.00000
     51       6.6647      0.00000
     52       6.8558      0.00000
     53       7.4350      0.00000
     54       7.7354      0.00000
     55       8.1401      0.00000
     56       8.3428      0.00000
     57       8.3717      0.00000
     58       8.6174      0.00000
     59       9.0504      0.00000
     60       9.2772      0.00000
     61       9.4264      0.00000
     62       9.7410      0.00000
     63      10.0764      0.00000
     64      10.2721      0.00000

 k-point    34 :       0.0000    0.5000    0.5000
  band No.  band energies     occupation 
      1     -22.2106      2.00000
      2     -22.2105      2.00000
      3     -22.0870      2.00000
      4     -22.0870      2.00000
      5     -16.4155      2.00000
      6     -16.4154      2.00000
      7     -14.5941      2.00000
      8     -14.5941      2.00000
      9     -12.9818      2.00000
     10     -12.9818      2.00000
     11     -11.5564      2.00000
     12     -11.5564      2.00000
     13      -9.2025      2.00000
     14      -9.2025      2.00000
     15      -7.8963      2.00000
     16      -7.8963      2.00000
     17      -7.2760      2.00000
     18      -7.2760      2.00000
     19      -6.9598      2.00000
     20      -6.9598      2.00000
     21      -6.6699      2.00000
     22      -6.6698      2.00000
     23      -5.7205      2.00000
     24      -5.7205      2.00000
     25      -5.5263      2.00000
     26      -5.5262      2.00000
     27      -5.1464      2.00000
     28      -5.1464      2.00000
     29      -4.7995      2.00000
     30      -4.7995      2.00000
     31      -4.5979      2.00000
     32      -4.5979      2.00000
     33      -4.1487      2.00000
     34      -4.1487      2.00000
     35      -3.7370      2.00000
     36      -3.7369      2.00000
     37      -3.4569      2.00000
     38      -3.4569      2.00000
     39      -3.0291      2.00000
     40      -3.0291      2.00000
     41      -0.7999      2.00000
     42      -0.7998      2.00000
     43      -0.6569      2.00000
     44      -0.6569      2.00000
     45       3.4510      0.00000
     46       3.4511      0.00000
     47       3.7608      0.00000
     48       3.7609      0.00000
     49       6.3677      0.00000
     50       6.3677      0.00000
     51       6.6284      0.00000
     52       6.6284      0.00000
     53       7.6543      0.00000
     54       7.6544      0.00000
     55       8.3989      0.00000
     56       8.3989      0.00000
     57       8.7470      0.00000
     58       8.7502      0.00000
     59       8.9784      0.00000
     60       8.9954      0.00000
     61       9.4617      0.00000
     62       9.4665      0.00000
     63      10.0906      0.00000
     64      10.1188      0.00000

 k-point    35 :       0.2500    0.5000    0.5000
  band No.  band energies     occupation 
      1     -22.2108      2.00000
      2     -22.2107      2.00000
      3     -22.0865      2.00000
      4     -22.0865      2.00000
      5     -16.4076      2.00000
      6     -16.4076      2.00000
      7     -14.6206      2.00000
      8     -14.6206      2.00000
      9     -12.9905      2.00000
     10     -12.9905      2.00000
     11     -11.5231      2.00000
     12     -11.5231      2.00000
     13      -9.1566      2.00000
     14      -9.1566      2.00000
     15      -7.8630      2.00000
     16      -7.8629      2.00000
     17      -7.4103      2.00000
     18      -7.4103      2.00000
     19      -6.8616      2.00000
     20      -6.8616      2.00000
     21      -6.6430      2.00000
     22      -6.6430      2.00000
     23      -5.7902      2.00000
     24      -5.7902      2.00000
     25      -5.5411      2.00000
     26      -5.5411      2.00000
     27      -5.1545      2.00000
     28      -5.1545      2.00000
     29      -4.8409      2.00000
     30      -4.8409      2.00000
     31      -4.5965      2.00000
     32      -4.5965      2.00000
     33      -4.1599      2.00000
     34      -4.1598      2.00000
     35      -3.7227      2.00000
     36      -3.7226      2.00000
     37      -3.4483      2.00000
     38      -3.4483      2.00000
     39      -3.0229      2.00000
     40      -3.0229      2.00000
     41      -0.8049      2.00000
     42      -0.8048      2.00000
     43      -0.6169      2.00000
     44      -0.6168      2.00000
     45       3.4413      0.00000
     46       3.4414      0.00000
     47       3.7682      0.00000
     48       3.7683      0.00000
     49       6.3771      0.00000
     50       6.3771      0.00000
     51       6.8242      0.00000
     52       6.8242      0.00000
     53       7.5332      0.00000
     54       7.5333      0.00000
     55       8.1154      0.00000
     56       8.1155      0.00000
     57       8.6372      0.00000
     58       8.6395      0.00000
     59       9.0585      0.00000
     60       9.0691      0.00000
     61       9.6644      0.00000
     62       9.7065      0.00000
     63       9.9086      0.00000
     64      10.0027      0.00000

 k-point    36 :       0.5000    0.5000    0.5000
  band No.  band energies     occupation 
      1     -22.2111      2.00000
      2     -22.2110      2.00000
      3     -22.0860      2.00000
      4     -22.0860      2.00000
      5     -16.3996      2.00000
      6     -16.3995      2.00000
      7     -14.6470      2.00000
      8     -14.6470      2.00000
      9     -12.9985      2.00000
     10     -12.9985      2.00000
     11     -11.4914      2.00000
     12     -11.4914      2.00000
     13      -9.1079      2.00000
     14      -9.1079      2.00000
     15      -7.7679      2.00000
     16      -7.7679      2.00000
     17      -7.5952      2.00000
     18      -7.5952      2.00000
     19      -6.7581      2.00000
     20      -6.7581      2.00000
     21      -6.6215      2.00000
     22      -6.6215      2.00000
     23      -5.8751      2.00000
     24      -5.8751      2.00000
     25      -5.5734      2.00000
     26      -5.5734      2.00000
     27      -5.1567      2.00000
     28      -5.1566      2.00000
     29      -4.7929      2.00000
     30      -4.7929      2.00000
     31      -4.6927      2.00000
     32      -4.6927      2.00000
     33      -4.1256      2.00000
     34      -4.1255      2.00000
     35      -3.7404      2.00000
     36      -3.7404      2.00000
     37      -3.4327      2.00000
     38      -3.4327      2.00000
     39      -3.0147      2.00000
     40      -3.0146      2.00000
     41      -0.8073      2.00000
     42      -0.8072      2.00000
     43      -0.5800      2.00000
     44      -0.5800      2.00000
     45       3.4334      0.00000
     46       3.4336      0.00000
     47       3.7706      0.00000
     48       3.7706      0.00000
     49       6.4628      0.00000
     50       6.4628      0.00000
     51       7.1111      0.00000
     52       7.1111      0.00000
     53       7.2044      0.00000
     54       7.2044      0.00000
     55       7.9422      0.00000
     56       7.9423      0.00000
     57       8.5246      0.00000
     58       8.5249      0.00000
     59       9.2935      0.00000
     60       9.2946      0.00000
     61       9.4854      0.00000
     62       9.5039      0.00000
     63       9.9737      0.00000
     64      10.1782      0.00000


--------------------------------------------------------------------------------------------------------


 soft charge-density along one line, spin component           1
         0         1         2         3         4         5         6         7         8         9
 total charge-density along one line

 pseudopotential strength for first ion, spin component:           1
 12.535  21.088  -0.000   0.008   0.005  -0.000   0.014   0.008
 21.088  35.478  -0.000   0.013   0.008  -0.000   0.024   0.014
 -0.000  -0.000  -3.218  -0.000   0.000  -5.762  -0.000   0.000
  0.008   0.013  -0.000  -3.203  -0.001  -0.000  -5.736  -0.001
  0.005   0.008   0.000  -0.001  -3.202   0.000  -0.001  -5.734
 -0.000  -0.000  -5.762  -0.000   0.000 -10.295  -0.001   0.001
  0.014   0.024  -0.000  -5.736  -0.001  -0.001 -10.250  -0.002
  0.008   0.014   0.000  -0.001  -5.734   0.001  -0.002 -10.246
 total augmentation occupancy for first ion, spin component:           1
  9.660  -3.679  -0.062   2.374   1.213   0.028  -1.136  -0.582
 -3.679   1.486   0.030  -1.229  -0.632  -0.013   0.568   0.292
 -0.062   0.030   3.135  -0.086  -0.023  -0.964   0.034   0.014
  2.374  -1.229  -0.086   9.316   1.505   0.034  -3.472  -0.700
  1.213  -0.632  -0.023   1.505   7.211   0.014  -0.700  -2.485
  0.028  -0.013  -0.964   0.034   0.014   0.299  -0.014  -0.007
 -1.136   0.568   0.034  -3.472  -0.700  -0.014   1.331   0.317
 -0.582   0.292   0.014  -0.700  -2.485  -0.007   0.317   0.883


------------------------ aborting loop because EDIFF is reached ----------------------------------------


    FORLOC:  cpu time      0.0069: real time      0.0069
    FORNL :  cpu time      0.4475: real time      0.4481
    FORCOR:  cpu time      0.3890: real time      0.3896
    OFIELD:  cpu time      0.0002: real time      0.0002

 VOLUME and BASIS-vectors are now :
 -----------------------------------------------------------------------------
  energy-cutoff  :     1000.00
  volume of cell :      279.55
      direct lattice vectors                 reciprocal lattice vectors
     6.650000000  0.000000000  0.000000000     0.150375940 -0.000000000  0.026028459
     0.000000000  6.210000000  0.000000000     0.000000000  0.161030596 -0.000000000
    -1.171700000  0.000000000  6.769340000     0.000000000  0.000000000  0.147724889

  length of vectors
     6.650000000  6.210000000  6.869995992     0.152611939  0.161030596  0.147724889


 FORCES acting on ions:
    Electron-Ion                     Ewald-Force                    Non-Local-Force
 -----------------------------------------------------------------------------------------------
   0.355E+02 -.793E+01 0.562E+02   -.377E+02 0.791E+01 -.598E+02   0.243E+01 0.599E-02 0.400E+01
   -.355E+02 -.794E+01 -.562E+02   0.377E+02 0.792E+01 0.598E+02   -.243E+01 0.574E-02 -.400E+01
   -.103E+03 0.105E+01 0.373E+02   0.105E+03 -.507E+00 -.366E+02   -.197E+01 -.541E+00 -.705E+00
   0.103E+03 0.105E+01 -.373E+02   -.105E+03 -.501E+00 0.366E+02   0.197E+01 -.541E+00 0.704E+00
   -.491E+02 -.574E+02 0.671E+02   0.496E+02 0.579E+02 -.696E+02   -.473E+00 -.518E+00 0.255E+01
   0.491E+02 -.574E+02 -.671E+02   -.496E+02 0.579E+02 0.696E+02   0.473E+00 -.518E+00 -.255E+01
   -.130E+02 -.252E+02 -.436E+02   0.144E+02 0.268E+02 0.471E+02   -.153E+01 -.171E+01 -.377E+01
   0.130E+02 -.252E+02 0.436E+02   -.144E+02 0.268E+02 -.471E+02   0.153E+01 -.171E+01 0.377E+01
   0.919E+02 0.507E+02 -.356E+02   -.932E+02 -.524E+02 0.349E+02   0.141E+01 0.167E+01 0.603E+00
   -.919E+02 0.507E+02 0.355E+02   0.932E+02 -.523E+02 -.349E+02   -.141E+01 0.167E+01 -.602E+00
   0.103E+03 -.288E+02 -.581E+02   -.104E+03 0.292E+02 0.604E+02   0.116E+01 -.377E+00 -.231E+01
   -.103E+03 -.288E+02 0.581E+02   0.104E+03 0.292E+02 -.604E+02   -.116E+01 -.377E+00 0.231E+01
   -.470E+02 -.264E+02 0.766E+00   0.511E+02 0.300E+02 -.310E+00   -.429E+01 -.380E+01 -.465E+00
   0.470E+02 -.264E+02 -.765E+00   -.511E+02 0.300E+02 0.308E+00   0.429E+01 -.380E+01 0.465E+00
   -.364E+02 0.400E+02 0.980E+01   0.387E+02 -.449E+02 -.101E+02   -.238E+01 0.508E+01 0.345E+00
   0.364E+02 0.400E+02 -.981E+01   -.387E+02 -.449E+02 0.101E+02   0.238E+01 0.508E+01 -.345E+00
   0.113E+02 -.537E+02 0.824E+01   -.132E+02 0.587E+02 -.797E+01   0.196E+01 -.525E+01 -.274E+00
   -.113E+02 -.537E+02 -.824E+01   0.132E+02 0.587E+02 0.797E+01   -.196E+01 -.525E+01 0.274E+00
   -.290E+02 -.814E+00 0.395E+02   0.320E+02 0.301E+00 -.442E+02   -.308E+01 0.526E+00 0.490E+01
   0.290E+02 -.813E+00 -.395E+02   -.320E+02 0.300E+00 0.442E+02   0.308E+01 0.526E+00 -.490E+01
   0.646E+01 0.523E+02 -.145E+02   -.549E+01 -.575E+02 0.157E+02   -.100E+01 0.548E+01 -.123E+01
   -.646E+01 0.523E+02 0.145E+02   0.549E+01 -.575E+02 -.157E+02   0.100E+01 0.548E+01 0.123E+01
   0.552E+02 0.852E-01 -.404E+00   -.605E+02 0.369E+00 -.444E+00   0.561E+01 -.478E+00 0.870E+00
   -.552E+02 0.839E-01 0.403E+00   0.605E+02 0.370E+00 0.445E+00   -.561E+01 -.478E+00 -.870E+00
   0.270E+02 -.504E+02 -.141E+01   -.284E+02 0.554E+02 0.301E+00   0.151E+01 -.528E+01 0.114E+01
   -.270E+02 -.504E+02 0.141E+01   0.284E+02 0.554E+02 -.301E+00   -.151E+01 -.528E+01 -.114E+01
   0.341E+02 0.902E+01 -.416E+02   -.365E+02 -.104E+02 0.464E+02   0.246E+01 0.146E+01 -.506E+01
   -.341E+02 0.902E+01 0.416E+02   0.365E+02 -.104E+02 -.464E+02   -.246E+01 0.146E+01 0.506E+01
   -.105E+03 0.836E+01 -.203E+03   0.127E+03 -.930E+01 0.247E+03   -.227E+02 0.961E+00 -.449E+02
   0.105E+03 0.836E+01 0.203E+03   -.127E+03 -.930E+01 -.247E+03   0.227E+02 0.964E+00 0.449E+02
   0.592E+02 0.719E+02 0.197E+03   -.748E+02 -.916E+02 -.240E+03   0.158E+02 0.200E+02 0.434E+02
   -.592E+02 0.719E+02 -.197E+03   0.748E+02 -.916E+02 0.240E+03   -.158E+02 0.200E+02 -.434E+02
 -----------------------------------------------------------------------------------------------
   -.767E-03 -.345E+02 0.126E-02   -.853E-13 0.142E-13 -.114E-12   0.767E-03 0.345E+02 -.126E-02


 POSITION                                       TOTAL-FORCE (eV/Angst)
 -----------------------------------------------------------------------------------
      2.33943      1.04586      3.02756         0.236684     -0.015430      0.451410
      3.13887      4.15084      3.74174        -0.236983     -0.015461     -0.451821
      3.14138      1.05382      1.74136        -0.063035     -0.003252      0.030171
      2.33692      4.15884      5.02796         0.063006     -0.003547     -0.030516
      2.29868      1.33346      0.48877        -0.048711     -0.034652      0.030590
      3.17960      4.43849      6.28055         0.048753     -0.034823     -0.030558
      1.08332      0.43536      0.40806        -0.170231     -0.210043     -0.443065
      4.39496      3.54038      6.36128         0.170196     -0.210098      0.442797
      0.37650      0.15086      1.71908         0.050471      0.023083     -0.035206
      5.10181      3.25588      5.05027        -0.050643      0.023067      0.035448
      0.83730      1.05014      2.87842         0.061284     -0.007264     -0.025378
      4.64101      4.15513      3.89090        -0.061274     -0.007409      0.024995
      3.96089      1.78028      1.83684        -0.195992     -0.164920     -0.008560
      1.51741      4.88530      4.93246         0.196111     -0.164736      0.008546
      3.60389      0.05582      1.67215        -0.115897      0.216443      0.034996
      1.87439      3.16085      5.09717         0.115867      0.216455     -0.034984
      1.90932      2.36598      0.54620         0.073792     -0.251397     -0.005651
      3.56892      5.47102      6.22314        -0.073601     -0.251355      0.005637
      1.71477      1.23496      6.33619        -0.147673      0.012966      0.201427
      3.76351      4.33996      0.43313         0.147555      0.013023     -0.201455
      0.57545      5.30210      1.95712        -0.037885      0.261536     -0.073138
      4.90287      2.19711      4.81225         0.037837      0.261382      0.073023
      5.94595      0.24489      1.55324         0.264964     -0.023809      0.021925
     -0.46765      3.34992      5.21611        -0.264853     -0.023668     -0.021899
      0.55432      2.09483      2.65180         0.083565     -0.244465      0.038819
      4.92398      5.19983      4.11753        -0.083642     -0.244354     -0.038880
      0.37111      0.76905      3.83222         0.128011      0.068682     -0.213385
      5.10722      3.87403      2.93710        -0.128193      0.068789      0.213800
      2.89745      1.02711      4.12245        -0.404279      0.022369     -0.781949
      2.58086      4.13202      2.64683         0.404727      0.022524      0.782958
     -0.47541      6.15418      6.12126         0.274227      0.350104      0.761949
      5.95364      3.04916      0.64808        -0.274158      0.350259     -0.762047
 -----------------------------------------------------------------------------------
    total drift:                                0.000000     -0.001901      0.000003


--------------------------------------------------------------------------------------------------------



  FREE ENERGIE OF THE ION-ELECTRON SYSTEM (eV)
  ---------------------------------------------------
  free  energy   TOTEN  =      -216.12158144 eV

  energy  without entropy=     -216.12158144  energy(sigma->0) =     -216.12158144



--------------------------------------------------------------------------------------------------------


    POTLOK:  cpu time      0.3936: real time      0.3936


--------------------------------------------------------------------------------------------------------


 stress matrix after NEB project (eV)
      0.00000      0.00000      0.00000
      0.00000      0.00000      0.00000
      0.00000      0.00000      0.00000
  FORCES: max atom, RMS     0.882360    0.406379
  FORCE total and by dimension    2.298827    0.782958
  Stress total and by dimension    0.000000    0.000000
     LOOP+:  cpu time     87.1905: real time     87.5109
    4ORBIT:  cpu time      0.0000: real time      0.0000

 total amount of memory used by VASP MPI-rank0    57624. kBytes
=======================================================================

   base      :      30000. kBytes
   nonl-proj :       4691. kBytes
   fftplans  :       1556. kBytes
   grid      :       3680. kBytes
   one-center:          3. kBytes
   wavefun   :      17694. kBytes

  
  
 General timing and accounting informations for this job:
 ========================================================
  
                  Total CPU time used (sec):       94.715
                            User time (sec):       92.899
                          System time (sec):        1.815
                         Elapsed time (sec):       98.931
  
                   Maximum memory used (kb):      231896.
                   Average memory used (kb):          N/A
  
                          Minor page faults:        33442
                          Major page faults:          692
                 Voluntary context switches:         3511
