 vasp.6.4.1 05Apr23 (build Jun  6 2023 14:36:51) complex                         
 executed on        HPECrayEX_GCC date 2024.08.20  13:55:32
 running  256 mpi-ranks, with    1 threads/rank, on    2 nodes
 distrk:  each k-point on  128 cores,    2 groups
 distr:  one band on NCORE=  32 cores,    4 groups


--------------------------------------------------------------------------------------------------------


 INCAR:
   ALGO = Conjugate
   KPAR = 2
   NCORE = 32
   PREC = Accurate
   EDIFF = 1E-7
   ENCUT = 1000
   ISMEAR = 0
   SIGMA = 0.01
   ISIF = 0
   SYMPREC = 1E-7

 POTCAR:    PAW_PBE C_h 06Feb2004                 
 POTCAR:    PAW_PBE H_h 06Feb2004                 
 POTCAR:    PAW_PBE O_h 06Feb2004                 
 POTCAR:    PAW_PBE C_h 06Feb2004                 
   VRHFIN =C: s2p2                                                                                  
   LEXCH  = PE                                                                                      
   EATOM  =   147.1560 eV,   10.8157 Ry                                                             
                                                                                                    
   TITEL  = PAW_PBE C_h 06Feb2004                                                                   
   LULTRA =        F    use ultrasoft PP ?                                                          
   IUNSCR =        1    unscreen: 0-lin 1-nonlin 2-no                                               
   RPACOR =    0.800    partial core radius                                                         
   POMASS =   12.011; ZVAL   =    4.000    mass and valenz                                          
   RCORE  =    1.100    outmost cutoff radius                                                       
   RWIGS  =    1.630; RWIGS  =    0.863    wigner-seitz radius (au A)                               
   ENMAX  =  700.000; ENMIN  =  500.000 eV                                                          
   ICORE  =        2    local potential                                                             
   LCOR   =        T    correct aug charges                                                         
   LPAW   =        T    paw PP                                                                      
   EAUG   =  946.768                                                                                
   DEXC   =    0.000                                                                                
   RMAX   =    1.128    core radius for proj-oper                                                   
   RAUG   =    1.300    factor for augmentation sphere                                              
   RDEP   =    1.162    radius for radial grids                                                     
   RDEPT  =    1.088    core radius for aug-charge                                                  
                                                                                                    
   Atomic configuration                                                                             
    4 entries                                                                                       
     n  l   j            E        occ.                                                              
     1  0  0.50      -273.3789   2.0000                                                             
     2  0  0.50       -13.7508   2.0000                                                             
     2  1  0.50        -5.2854   2.0000                                                             
     3  2  1.50        -5.4423   0.0000                                                             
   Description                                                                                      
     l       E           TYP  RCUT    TYP  RCUT                                                     
     0    -13.7508458     23  1.100                                                                 
     0     -8.2022199     23  1.100                                                                 
     1     -5.2854383     23  1.100                                                                 
     1      1.1560700     23  1.100                                                                 
     2     -5.4423304      7  1.100                                                                 
  local pseudopotential read in
  partial core-charges read in
  partial kinetic energy density read in
  atomic valenz-charges read in
  non local Contribution for L=           0  read in
    real space projection operators read in
  non local Contribution for L=           0  read in
    real space projection operators read in
  non local Contribution for L=           1  read in
    real space projection operators read in
  non local Contribution for L=           1  read in
    real space projection operators read in
    PAW grid and wavefunctions read in

   number of l-projection  operators is LMAX  =           4
   number of lm-projection operators is LMMAX =           8

 POTCAR:    PAW_PBE H_h 06Feb2004                 
   VRHFIN =H: ultrasoft test                                                                        
   LEXCH  = PE                                                                                      
   EATOM  =    12.4884 eV,    0.9179 Ry                                                             
                                                                                                    
   TITEL  = PAW_PBE H_h 06Feb2004                                                                   
   LULTRA =        F    use ultrasoft PP ?                                                          
   IUNSCR =        0    unscreen: 0-lin 1-nonlin 2-no                                               
   RPACOR =    0.000    partial core radius                                                         
   POMASS =    1.000; ZVAL   =    1.000    mass and valenz                                          
   RCORE  =    0.800    outmost cutoff radius                                                       
   RWIGS  =    0.700; RWIGS  =    0.370    wigner-seitz radius (au A)                               
   ENMAX  =  700.000; ENMIN  =  350.000 eV                                                          
   RCLOC  =    0.701    cutoff for local pot                                                        
   LCOR   =        T    correct aug charges                                                         
   LPAW   =        T    paw PP                                                                      
   EAUG   = 1000.000                                                                                
   RMAX   =    0.819    core radius for proj-oper                                                   
   RAUG   =    1.000    factor for augmentation sphere                                              
   RDEP   =    0.817    radius for radial grids                                                     
   RDEPT  =    0.817    core radius for aug-charge                                                  
                                                                                                    
   Atomic configuration                                                                             
    2 entries                                                                                       
     n  l   j            E        occ.                                                              
     1  0  0.50        -6.4927   1.0000                                                             
     2  1  0.50        -3.4015   0.0000                                                             
   Description                                                                                      
     l       E           TYP  RCUT    TYP  RCUT                                                     
     0     -6.4927493     23  0.800                                                                 
     0      6.8029130     23  0.800                                                                 
     1     -6.8029130     23  0.800                                                                 
  local pseudopotential read in
  atomic valenz-charges read in
  non local Contribution for L=           0  read in
    real space projection operators read in
  non local Contribution for L=           0  read in
    real space projection operators read in
  non local Contribution for L=           1  read in
    real space projection operators read in
    PAW grid and wavefunctions read in

   number of l-projection  operators is LMAX  =           3
   number of lm-projection operators is LMMAX =           5

 POTCAR:    PAW_PBE O_h 06Feb2004                 
   VRHFIN =O: s2p4                                                                                  
   LEXCH  = PE                                                                                      
   EATOM  =   432.3788 eV,   31.7789 Ry                                                             
                                                                                                    
   TITEL  = PAW_PBE O_h 06Feb2004                                                                   
   LULTRA =        F    use ultrasoft PP ?                                                          
   IUNSCR =        1    unscreen: 0-lin 1-nonlin 2-no                                               
   RPACOR =    0.800    partial core radius                                                         
   POMASS =   16.000; ZVAL   =    6.000    mass and valenz                                          
   RCORE  =    1.100    outmost cutoff radius                                                       
   RWIGS  =    1.400; RWIGS  =    0.741    wigner-seitz radius (au A)                               
   ENMAX  =  700.000; ENMIN  =  500.000 eV                                                          
   ICORE  =        2    local potential                                                             
   LCOR   =        T    correct aug charges                                                         
   LPAW   =        T    paw PP                                                                      
   EAUG   =  888.804                                                                                
   DEXC   =    0.000                                                                                
   RMAX   =    1.128    core radius for proj-oper                                                   
   RAUG   =    1.300    factor for augmentation sphere                                              
   RDEP   =    1.125    radius for radial grids                                                     
   RDEPT  =    1.088    core radius for aug-charge                                                  
                                                                                                    
   Atomic configuration                                                                             
    4 entries                                                                                       
     n  l   j            E        occ.                                                              
     1  0  0.50      -514.6923   2.0000                                                             
     2  0  0.50       -23.9615   2.0000                                                             
     2  1  0.50        -9.0305   4.0000                                                             
     3  2  1.50        -9.5241   0.0000                                                             
   Description                                                                                      
     l       E           TYP  RCUT    TYP  RCUT                                                     
     0    -23.9615319     23  1.100                                                                 
     0    -25.3221145     23  1.100                                                                 
     1     -9.0304911     23  1.100                                                                 
     1     -5.4802209     23  1.100                                                                 
     2     -9.5240782      7  1.100                                                                 
  local pseudopotential read in
  partial core-charges read in
  partial kinetic energy density read in
  atomic valenz-charges read in
  non local Contribution for L=           0  read in
    real space projection operators read in
  non local Contribution for L=           0  read in
    real space projection operators read in
  non local Contribution for L=           1  read in
    real space projection operators read in
  non local Contribution for L=           1  read in
    real space projection operators read in
    PAW grid and wavefunctions read in

   number of l-projection  operators is LMAX  =           4
   number of lm-projection operators is LMMAX =           8

 -----------------------------------------------------------------------------
|                                                                             |
|               ----> ADVICE to this user running VASP <----                  |
|                                                                             |
|     You have a (more or less) 'large supercell' and for larger cells it     |
|     might be more efficient to use real-space projection operators.         |
|     Therefore, try LREAL= Auto in the INCAR file.                           |
|     Mind: For very accurate calculation, you might also keep the            |
|     reciprocal projection scheme (i.e. LREAL=.FALSE.).                      |
|                                                                             |
 -----------------------------------------------------------------------------

  PAW_PBE C_h 06Feb2004                 :
 energy of atom  1       EATOM= -147.1560
 kinetic energy error for atom=    0.0031 (will be added to EATOM!!)
  PAW_PBE H_h 06Feb2004                 :
 energy of atom  2       EATOM=  -12.4884
 kinetic energy error for atom=    0.0006 (will be added to EATOM!!)
  PAW_PBE O_h 06Feb2004                 :
 energy of atom  3       EATOM= -432.3788
 kinetic energy error for atom=    0.0171 (will be added to EATOM!!)


 POSCAR:  C  H  O
  positions in cartesian coordinates
  No initial velocities read in
 exchange correlation table for  LEXCH =        8
   RHO(1)=    0.500       N(1)  =     2000
   RHO(2)=  100.500       N(2)  =     4000

 VTST: version 4.1, (05/19/21)

 CHAIN: initializing optimizer
 
 OPT: Using VASP Dynamics algorithm
 CHAIN: Read ICHAIN            0

 POSCAR:  C  H  O
  positions in cartesian coordinates
  No initial velocities read in



--------------------------------------------------------------------------------------------------------


 ion  position               nearest neighbor table
   1  0.431  0.168  0.447-  29 1.23  11 1.51   3 1.52
   2  0.569  0.668  0.553-  30 1.23  12 1.51   4 1.52
   3  0.518  0.170  0.257-  13 1.10  15 1.10   1 1.52   5 1.54
   4  0.482  0.670  0.743-  14 1.10  16 1.10   2 1.52   6 1.54
   5  0.358  0.215  0.072-  19 1.10  17 1.10   7 1.51   3 1.54
   6  0.642  0.715  0.928-  20 1.10  18 1.10   8 1.51   4 1.54
   7  0.174  0.070  0.060-  31 1.23   5 1.51   9 1.52
   8  0.826  0.570  0.940-  32 1.23   6 1.51  10 1.52
   9  0.101  0.024  0.254-  23 1.10  21 1.10   7 1.52  11 1.54
  10  0.899  0.524  0.746-  24 1.10  22 1.10   8 1.52  12 1.54
  11  0.201  0.169  0.425-  27 1.10  25 1.11   1 1.51   9 1.54
  12  0.799  0.669  0.575-  28 1.10  26 1.11   2 1.51  10 1.54
  13  0.643  0.287  0.271-   3 1.10
  14  0.357  0.787  0.729-   4 1.10
  15  0.585  0.009  0.247-   3 1.10
  16  0.415  0.509  0.753-   4 1.10
  17  0.301  0.381  0.081-   5 1.10
  18  0.699  0.881  0.919-   6 1.10
  19  0.423  0.199  0.936-   5 1.10
  20  0.577  0.699  0.064-   6 1.10
  21  0.137  0.854  0.289-   9 1.10
  22  0.863  0.354  0.711-  10 1.10
  23  0.935  0.039  0.229-   9 1.10
  24  0.065  0.539  0.771-  10 1.10
  25  0.152  0.337  0.392-  11 1.11
  26  0.848  0.837  0.608-  12 1.11
  27  0.156  0.124  0.566-  11 1.10
  28  0.844  0.624  0.434-  12 1.10
  29  0.543  0.165  0.609-   1 1.23
  30  0.457  0.665  0.391-   2 1.23
  31  0.088  0.991  0.904-   7 1.23
  32  0.912  0.491  0.096-   8 1.23

  LATTYP: Found a simple monoclinic cell.
 ALAT       =     6.6500000000
 B/A-ratio  =     0.9338345865
 C/A-ratio  =     1.0330821040
 COS(beta)  =    -0.1705532291
  
  Lattice vectors:
  
 A1 = (   6.6500000000,   0.0000000000,   0.0000000000)
 A2 = (   0.0000000000,   6.2100000000,   0.0000000000)
 A3 = (  -1.1717000000,   0.0000000000,   6.7693400000)


Analysis of symmetry for initial positions (statically):
=====================================================================
 Subroutine PRICEL returns:
 Original cell was already a primitive cell.
 

 Routine SETGRP: Setting up the symmetry group for a 
 simple monoclinic supercell.


 Subroutine GETGRP returns: Found  1 space group operations
 (whereof  1 operations were pure point group operations)
 out of a pool of  4 trial point group operations.


The static configuration has the point symmetry C_1 .


Analysis of symmetry for dynamics (positions and initial velocities):
=====================================================================
 Subroutine PRICEL returns:
 Original cell was already a primitive cell.
 

 Routine SETGRP: Setting up the symmetry group for a 
 simple monoclinic supercell.


 Subroutine GETGRP returns: Found  1 space group operations
 (whereof  1 operations were pure point group operations)
 out of a pool of  4 trial point group operations.


The dynamic configuration has the point symmetry C_1 .


 Subroutine INISYM returns: Found  1 space group operations
 (whereof  1 operations are pure point group operations),
 and found     1 'primitive' translations


----------------------------------------------------------------------------------------

                                     Primitive cell                                     

  volume of cell :     279.5500

  direct lattice vectors                    reciprocal lattice vectors
     6.650000000  0.000000000  0.000000000     0.150375940 -0.000000000  0.026028459
     0.000000000  6.210000000  0.000000000     0.000000000  0.161030596 -0.000000000
    -1.171700000  0.000000000  6.769340000     0.000000000  0.000000000  0.147724889

  length of vectors
     6.650000000  6.210000000  6.869995992     0.152611939  0.161030596  0.147724889

  position of ions in fractional coordinates (direct lattice)
     0.430596934  0.168415645  0.447246499
     0.569402684  0.668411586  0.552747901
     0.517712700  0.169696514  0.257241761
     0.482285808  0.669699730  0.742754295
     0.358387813  0.214728312  0.072203657
     0.641608337  0.714732745  0.927793743
     0.173527056  0.070106752  0.060279888
     0.826469951  0.570110222  0.939720112
     0.101361308  0.024293230  0.253950463
     0.898639441  0.524295920  0.746049862
     0.200830755  0.169104039  0.425214823
     0.799170228  0.669102809  0.574782411
     0.643432873  0.286679458  0.271346732
     0.356565504  0.786682473  0.728646812
     0.585462031  0.008989135  0.247017566
     0.414534072  0.508993625  0.752979240
     0.301332952  0.380995791  0.080687977
     0.698658800  0.881002061  0.919312169
     0.422781436  0.198866956  0.936013107
     0.577215320  0.698865900  0.063984030
     0.137474218  0.853800507  0.289115351
     0.862528711  0.353802491  0.710889771
     0.934555520  0.039434101  0.229452206
     0.065444480  0.539439265  0.770549094
     0.152378381  0.337332307  0.391736502
     0.847620959  0.837331508  0.608262147
     0.155552501  0.123839817  0.566113583
     0.844451209  0.623837803  0.433882794
     0.543007233  0.165396602  0.608989152
     0.456992138  0.665382227  0.391003054
     0.087836692  0.991010865  0.904262631
     0.912153244  0.491007815  0.095737149

  ion indices of the primitive-cell ions
   primitive index   ion index
                 1           1
                 2           2
                 3           3
                 4           4
                 5           5
                 6           6
                 7           7
                 8           8
                 9           9
                10          10
                11          11
                12          12
                13          13
                14          14
                15          15
                16          16
                17          17
                18          18
                19          19
                20          20
                21          21
                22          22
                23          23
                24          24
                25          25
                26          26
                27          27
                28          28
                29          29
                30          30
                31          31
                32          32

----------------------------------------------------------------------------------------



 KPOINTS: auto                                    

Automatic generation of k-mesh.
 Grid dimensions read from file:
 generate k-points for:    4    4    4

 Generating k-lattice:

  Cartesian coordinates                     Fractional coordinates (reciprocal lattice)
     0.037593985 -0.000000000  0.006507115     0.250000000  0.000000000 -0.000000000
     0.000000000  0.040257649 -0.000000000     0.000000000  0.250000000  0.000000000
     0.000000000  0.000000000  0.036931222     0.000000000  0.000000000  0.250000000

  Length of vectors
     0.038152985  0.040257649  0.036931222

  Shift w.r.t. Gamma in fractional coordinates (k-lattice)
     0.000000000  0.000000000  0.000000000

 
 Subroutine IBZKPT returns following result:
 ===========================================
 
 Found     36 irreducible k-points:
 
 Following reciprocal coordinates:
            Coordinates               Weight
  0.000000  0.000000  0.000000      1.000000
  0.250000  0.000000  0.000000      2.000000
  0.500000  0.000000  0.000000      1.000000
  0.000000  0.250000  0.000000      2.000000
  0.250000  0.250000  0.000000      2.000000
 -0.250000  0.250000  0.000000      2.000000
  0.500000  0.250000  0.000000      2.000000
  0.000000  0.500000  0.000000      1.000000
  0.250000  0.500000  0.000000      2.000000
  0.500000  0.500000  0.000000      1.000000
  0.000000  0.000000  0.250000      2.000000
  0.250000  0.000000  0.250000      2.000000
  0.500000  0.000000  0.250000      2.000000
 -0.250000  0.000000  0.250000      2.000000
  0.000000  0.250000  0.250000      2.000000
  0.000000  0.250000 -0.250000      2.000000
  0.250000  0.250000  0.250000      2.000000
 -0.250000  0.250000 -0.250000      2.000000
  0.500000  0.250000  0.250000      2.000000
  0.500000  0.250000 -0.250000      2.000000
 -0.250000  0.250000  0.250000      2.000000
  0.250000  0.250000 -0.250000      2.000000
  0.000000  0.500000  0.250000      2.000000
  0.250000  0.500000  0.250000      2.000000
  0.500000  0.500000  0.250000      2.000000
 -0.250000  0.500000  0.250000      2.000000
  0.000000  0.000000  0.500000      1.000000
  0.250000  0.000000  0.500000      2.000000
  0.500000  0.000000  0.500000      1.000000
  0.000000  0.250000  0.500000      2.000000
  0.250000  0.250000  0.500000      2.000000
 -0.250000  0.250000  0.500000      2.000000
  0.500000  0.250000  0.500000      2.000000
  0.000000  0.500000  0.500000      1.000000
  0.250000  0.500000  0.500000      2.000000
  0.500000  0.500000  0.500000      1.000000
 
 Following cartesian coordinates:
            Coordinates               Weight
  0.000000  0.000000  0.000000      1.000000
  0.037594  0.000000  0.006507      2.000000
  0.075188  0.000000  0.013014      1.000000
  0.000000  0.040258  0.000000      2.000000
  0.037594  0.040258  0.006507      2.000000
 -0.037594  0.040258 -0.006507      2.000000
  0.075188  0.040258  0.013014      2.000000
  0.000000  0.080515  0.000000      1.000000
  0.037594  0.080515  0.006507      2.000000
  0.075188  0.080515  0.013014      1.000000
  0.000000  0.000000  0.036931      2.000000
  0.037594  0.000000  0.043438      2.000000
  0.075188  0.000000  0.049945      2.000000
 -0.037594  0.000000  0.030424      2.000000
  0.000000  0.040258  0.036931      2.000000
  0.000000  0.040258 -0.036931      2.000000
  0.037594  0.040258  0.043438      2.000000
 -0.037594  0.040258 -0.043438      2.000000
  0.075188  0.040258  0.049945      2.000000
  0.075188  0.040258 -0.023917      2.000000
 -0.037594  0.040258  0.030424      2.000000
  0.037594  0.040258 -0.030424      2.000000
  0.000000  0.080515  0.036931      2.000000
  0.037594  0.080515  0.043438      2.000000
  0.075188  0.080515  0.049945      2.000000
 -0.037594  0.080515  0.030424      2.000000
  0.000000  0.000000  0.073862      1.000000
  0.037594  0.000000  0.080370      2.000000
  0.075188  0.000000  0.086877      1.000000
  0.000000  0.040258  0.073862      2.000000
  0.037594  0.040258  0.080370      2.000000
 -0.037594  0.040258  0.067355      2.000000
  0.075188  0.040258  0.086877      2.000000
  0.000000  0.080515  0.073862      1.000000
  0.037594  0.080515  0.080370      2.000000
  0.075188  0.080515  0.086877      1.000000
 


--------------------------------------------------------------------------------------------------------




 Dimension of arrays:
   k-points           NKPTS =     36   k-points in BZ     NKDIM =     36   number of bands    NBANDS=     64
   number of dos      NEDOS =    301   number of ions     NIONS =     32
   non local maximal  LDIM  =      4   non local SUM 2l+1 LMDIM =      8
   total plane-waves  NPLWV = 322560
   max r-space proj   IRMAX =      1   max aug-charges    IRDMAX=   8614
   dimension x,y,z NGX =    70 NGY =   64 NGZ =   72
   dimension x,y,z NGXF=   140 NGYF=  128 NGZF=  144
   support grid    NGXF=   140 NGYF=  128 NGZF=  144
   ions per type =              12  16   4
   NGX,Y,Z   is equivalent  to a cutoff of  17.50, 17.13, 17.42 a.u.
   NGXF,Y,Z  is equivalent  to a cutoff of  35.00, 34.27, 34.85 a.u.

 SYSTEM =  unknown system                          
 POSCAR =   C  H  O                                

 Startparameter for this run:
   NWRITE =      2    write-flag & timer
   PREC   = accura    normal or accurate (medium, high low for compatibility)
   ISTART =      0    job   : 0-new  1-cont  2-samecut
   ICHARG =      2    charge: 1-file 2-atom 10-const
   ISPIN  =      1    spin polarized calculation?
   LNONCOLLINEAR =      F non collinear calculations
   LSORBIT =      F    spin-orbit coupling
   INIWAV =      1    electr: 0-lowe 1-rand  2-diag
   LASPH  =      F    aspherical Exc in radial PAW
 Electronic Relaxation 1
   ENCUT  = 1000.0 eV  73.50 Ry    8.57 a.u.  17.15 16.01 17.71*2*pi/ulx,y,z
   ENINI  = 1000.0     initial cutoff
   ENAUG  = 1000.0 eV  augmentation charge cutoff
   NELM   =     60;   NELMIN=  2; NELMDL= -5     # of ELM steps 
   EDIFF  = 0.1E-06   stopping-criterion for ELM
   LREAL  =      F    real-space projection
   NLSPLINE    = F    spline interpolate recip. space projectors
   LCOMPAT=      F    compatible to vasp.4.4
   GGA_COMPAT  = T    GGA compatible to vasp.4.4-vasp.4.6
   LMAXPAW     = -100 max onsite density
   LMAXMIX     =    2 max onsite mixed and CHGCAR
   VOSKOWN=      0    Vosko Wilk Nusair interpolation
   ROPT   =    0.00000   0.00000   0.00000
 Ionic relaxation
   EDIFFG = 0.1E-05   stopping-criterion for IOM
   NSW    =      0    number of steps for IOM
   NBLOCK =      1;   KBLOCK =      1    inner block; outer block 
   IBRION =     -1    ionic relax: 0-MD 1-quasi-New 2-CG
   NFREE  =      0    steps in history (QN), initial steepest desc. (CG)
   ISIF   =      0    stress and relaxation
   IWAVPR =     10    prediction:  0-non 1-charg 2-wave 3-comb
   ISYM   =      2    0-nonsym 1-usesym 2-fastsym
   LCORR  =      T    Harris-Foulkes like correction to forces

   POTIM  = 0.5000    time-step for ionic-motion
   TEIN   =    0.0    initial temperature
   TEBEG  =    0.0;   TEEND  =   0.0 temperature during run
   SMASS  =  -3.00    Nose mass-parameter (am)
   estimated Nose-frequenzy (Omega)   =  0.10E-29 period in steps = 0.13E+47 mass=  -0.101E-26a.u.
   SCALEE = 1.0000    scale energy and forces
   NPACO  =    256;   APACO  = 10.0  distance and # of slots for P.C.
   PSTRESS=    0.0 pullay stress

  Mass of Ions in am
   POMASS =  12.01  1.00 16.00
  Ionic Valenz
   ZVAL   =   4.00  1.00  6.00
  Atomic Wigner-Seitz radii
   RWIGS  =  -1.00 -1.00 -1.00
  virtual crystal weights 
   VCA    =   1.00  1.00  1.00
   NELECT =      88.0000    total number of electrons
   NUPDOWN=      -1.0000    fix difference up-down

 DOS related values:
   EMIN   =  10.00;   EMAX   =-10.00  energy-range for DOS
   EFERMI =   0.00;   METHOD = LEGACY      
   ISMEAR =     0;   SIGMA  =   0.01  broadening in eV -4-tet -1-fermi 0-gaus

 Electronic relaxation 2 (details)
   IALGO  =     58    algorithm
   LDIAG  =      T    sub-space diagonalisation (order eigenvalues)
   LSUBROT=      F    optimize rotation matrix (better conditioning)
   TURBO    =      0    0=normal 1=particle mesh
   IRESTART =      0    0=no restart 2=restart with 2 vectors
   NREBOOT  =      0    no. of reboots
   NMIN     =      0    reboot dimension
   EREF     =   0.00    reference energy to select bands
   IMIX   =      4    mixing-type and parameters
     AMIX     =   0.40;   BMIX     =  1.00
     AMIX_MAG =   1.60;   BMIX_MAG =  1.00
     AMIN     =   0.10
     WC   =   100.;   INIMIX=   1;  MIXPRE=   1;  MAXMIX= -45

 Intra band minimization:
   WEIMIN = 0.0000     energy-eigenvalue tresh-hold
   EBREAK =  0.39E-09  absolut break condition
   DEPER  =   0.30     relativ break condition  

   TIME   =   0.40     timestep for ELM

  volume/ion in A,a.u.               =       8.74        58.95
  Fermi-wavevector in a.u.,A,eV,Ry     =   1.113651  2.104496 16.874204  1.240219
  Thomas-Fermi vector in A             =   2.250238

 Write flags
   LWAVE        =      T    write WAVECAR
   LDOWNSAMPLE  =      F    k-point downsampling of WAVECAR
   LCHARG       =      T    write CHGCAR
   LVTOT        =      F    write LOCPOT, total local potential
   LVHAR        =      F    write LOCPOT, Hartree potential only
   LELF         =      F    write electronic localiz. function (ELF)
   LORBIT       =      0    0 simple, 1 ext, 2 COOP (PROOUT), +10 PAW based schemes


 Dipole corrections
   LMONO  =      F    monopole corrections only (constant potential shift)
   LDIPOL =      F    correct potential (dipole corrections)
   IDIPOL =      0    1-x, 2-y, 3-z, 4-all directions 
   EPSILON=  1.0000000 bulk dielectric constant

 Exchange correlation treatment:
   GGA     =    --    GGA type
   LEXCH   =     8    internal setting for exchange type
   LIBXC   =     F    Libxc                    
   VOSKOWN =     0    Vosko Wilk Nusair interpolation
   LHFCALC =     F    Hartree Fock is set to
   LHFONE  =     F    Hartree Fock one center treatment
   AEXX    =    0.0000 exact exchange contribution

 Linear response parameters
   LEPSILON=     F    determine dielectric tensor
   LRPA    =     F    only Hartree local field effects (RPA)
   LNABLA  =     F    use nabla operator in PAW spheres
   LVEL    =     F    velocity operator in full k-point grid
   CSHIFT  =0.1000    complex shift for real part using Kramers Kronig
   OMEGAMAX=  -1.0    maximum frequency
   DEG_THRESHOLD= 0.2000000E-02 threshold for treating states as degnerate
   RTIME   =   -0.100 relaxation time in fs
  (WPLASMAI=    0.000 imaginary part of plasma frequency in eV, 0.658/RTIME)
   DFIELD  = 0.0000000 0.0000000 0.0000000 field for delta impulse in time

  Optional k-point grid parameters
   LKPOINTS_OPT  =     F    use optional k-point grid
   KPOINTS_OPT_MODE=     1    mode for optional k-point grid

 Orbital magnetization related:
   ORBITALMAG=     F  switch on orbital magnetization
   LCHIMAG   =     F  perturbation theory with respect to B field
   DQ        =  0.001000  dq finite difference perturbation B field
   LLRAUG    =     F  two centre corrections for induced B field
   LBONE     =     F  B-component reconstruction in AE one-centre
   LVGVCALC  =     T  calculate vGv susceptibility
   LVGVAPPL  =     F  apply vGv susceptibility instead of pGv for G=0

 Random number generation:
   RANDOM_GENERATOR = DEFAULT
   PCG_SEED         = not used


--------------------------------------------------------------------------------------------------------


 Static calculation
 charge density and potential will be updated during run
 non-spin polarized calculation
 Conjugate gradient for all bands (Freysoldt, et al. PRB 79, 241103 (2009))
 preconditioned conjugated gradient                                        
 perform sub-space diagonalisation
    before iterative eigenvector-optimisation
 modified Broyden-mixing scheme, WC =      100.0
 initial mixing is a Kerker type mixing with AMIX =  0.4000 and BMIX =      1.0000
 Hartree-type preconditioning will be used
 using additional bands           20
 reciprocal scheme for non local part
 use partial core corrections
 no Harris-corrections to forces 
 use gradient corrections 
 use of overlap-Matrix (Vanderbilt PP)
 Gauss-broadening in eV      SIGMA  =   0.01


--------------------------------------------------------------------------------------------------------


  energy-cutoff  :     1000.00
  volume of cell :      279.55
      direct lattice vectors                 reciprocal lattice vectors
     6.650000000  0.000000000  0.000000000     0.150375940 -0.000000000  0.026028459
     0.000000000  6.210000000  0.000000000     0.000000000  0.161030596 -0.000000000
    -1.171700000  0.000000000  6.769340000     0.000000000  0.000000000  0.147724889

  length of vectors
     6.650000000  6.210000000  6.869995992     0.152611939  0.161030596  0.147724889



 k-points in units of 2pi/SCALE and weight: auto                                    
   0.00000000  0.00000000  0.00000000       0.016
   0.03759398  0.00000000  0.00650711       0.031
   0.07518797  0.00000000  0.01301423       0.016
   0.00000000  0.04025765  0.00000000       0.031
   0.03759398  0.04025765  0.00650711       0.031
  -0.03759398  0.04025765 -0.00650711       0.031
   0.07518797  0.04025765  0.01301423       0.031
   0.00000000  0.08051530  0.00000000       0.016
   0.03759398  0.08051530  0.00650711       0.031
   0.07518797  0.08051530  0.01301423       0.016
   0.00000000  0.00000000  0.03693122       0.031
   0.03759398  0.00000000  0.04343834       0.031
   0.07518797  0.00000000  0.04994545       0.031
  -0.03759398  0.00000000  0.03042411       0.031
   0.00000000  0.04025765  0.03693122       0.031
   0.00000000  0.04025765 -0.03693122       0.031
   0.03759398  0.04025765  0.04343834       0.031
  -0.03759398  0.04025765 -0.04343834       0.031
   0.07518797  0.04025765  0.04994545       0.031
   0.07518797  0.04025765 -0.02391699       0.031
  -0.03759398  0.04025765  0.03042411       0.031
   0.03759398  0.04025765 -0.03042411       0.031
   0.00000000  0.08051530  0.03693122       0.031
   0.03759398  0.08051530  0.04343834       0.031
   0.07518797  0.08051530  0.04994545       0.031
  -0.03759398  0.08051530  0.03042411       0.031
   0.00000000  0.00000000  0.07386244       0.016
   0.03759398  0.00000000  0.08036956       0.031
   0.07518797  0.00000000  0.08687667       0.016
   0.00000000  0.04025765  0.07386244       0.031
   0.03759398  0.04025765  0.08036956       0.031
  -0.03759398  0.04025765  0.06735533       0.031
   0.07518797  0.04025765  0.08687667       0.031
   0.00000000  0.08051530  0.07386244       0.016
   0.03759398  0.08051530  0.08036956       0.031
   0.07518797  0.08051530  0.08687667       0.016

 k-points in reciprocal lattice and weights: auto                                    
   0.00000000  0.00000000  0.00000000       0.016
   0.25000000  0.00000000  0.00000000       0.031
   0.50000000  0.00000000  0.00000000       0.016
   0.00000000  0.25000000  0.00000000       0.031
   0.25000000  0.25000000  0.00000000       0.031
  -0.25000000  0.25000000  0.00000000       0.031
   0.50000000  0.25000000  0.00000000       0.031
   0.00000000  0.50000000  0.00000000       0.016
   0.25000000  0.50000000  0.00000000       0.031
   0.50000000  0.50000000  0.00000000       0.016
   0.00000000  0.00000000  0.25000000       0.031
   0.25000000  0.00000000  0.25000000       0.031
   0.50000000  0.00000000  0.25000000       0.031
  -0.25000000  0.00000000  0.25000000       0.031
   0.00000000  0.25000000  0.25000000       0.031
   0.00000000  0.25000000 -0.25000000       0.031
   0.25000000  0.25000000  0.25000000       0.031
  -0.25000000  0.25000000 -0.25000000       0.031
   0.50000000  0.25000000  0.25000000       0.031
   0.50000000  0.25000000 -0.25000000       0.031
  -0.25000000  0.25000000  0.25000000       0.031
   0.25000000  0.25000000 -0.25000000       0.031
   0.00000000  0.50000000  0.25000000       0.031
   0.25000000  0.50000000  0.25000000       0.031
   0.50000000  0.50000000  0.25000000       0.031
  -0.25000000  0.50000000  0.25000000       0.031
   0.00000000  0.00000000  0.50000000       0.016
   0.25000000  0.00000000  0.50000000       0.031
   0.50000000  0.00000000  0.50000000       0.016
   0.00000000  0.25000000  0.50000000       0.031
   0.25000000  0.25000000  0.50000000       0.031
  -0.25000000  0.25000000  0.50000000       0.031
   0.50000000  0.25000000  0.50000000       0.031
   0.00000000  0.50000000  0.50000000       0.016
   0.25000000  0.50000000  0.50000000       0.031
   0.50000000  0.50000000  0.50000000       0.016

 position of ions in fractional coordinates (direct lattice) 
   0.43059693  0.16841564  0.44724650
   0.56940268  0.66841159  0.55274790
   0.51771270  0.16969651  0.25724176
   0.48228581  0.66969973  0.74275429
   0.35838781  0.21472831  0.07220366
   0.64160834  0.71473275  0.92779374
   0.17352706  0.07010675  0.06027989
   0.82646995  0.57011022  0.93972011
   0.10136131  0.02429323  0.25395046
   0.89863944  0.52429592  0.74604986
   0.20083075  0.16910404  0.42521482
   0.79917023  0.66910281  0.57478241
   0.64343287  0.28667946  0.27134673
   0.35656550  0.78668247  0.72864681
   0.58546203  0.00898913  0.24701757
   0.41453407  0.50899363  0.75297924
   0.30133295  0.38099579  0.08068798
   0.69865880  0.88100206  0.91931217
   0.42278144  0.19886696  0.93601311
   0.57721532  0.69886590  0.06398403
   0.13747422  0.85380051  0.28911535
   0.86252871  0.35380249  0.71088977
   0.93455552  0.03943410  0.22945221
   0.06544448  0.53943927  0.77054909
   0.15237838  0.33733231  0.39173650
   0.84762096  0.83733151  0.60826215
   0.15555250  0.12383982  0.56611358
   0.84445121  0.62383780  0.43388279
   0.54300723  0.16539660  0.60898915
   0.45699214  0.66538223  0.39100305
   0.08783669  0.99101087  0.90426263
   0.91215324  0.49100782  0.09573715

 position of ions in cartesian coordinates  (Angst):
   2.33943089  1.04586116  3.02756362
   3.13887313  4.15083595  3.74173847
   3.14137928  1.05381535  1.74135694
   2.33691542  4.15883532  5.02795636
   2.29867793  1.33346282  0.48877110
   3.17959951  4.43849035  6.28055129
   1.08332498  0.43536293  0.40805506
   4.39495512  3.54038448  6.36128494
   0.37649894  0.15086096  1.71907703
   5.10180566  3.25587766  5.05026518
   0.83730031  1.05013608  2.87842371
   4.64100946  4.15512845  3.89089757
   3.96089164  1.78027943  1.83683828
   1.51740513  4.88529816  4.93245801
   3.60389202  0.05582253  1.67214589
   1.87438580  3.16085041  5.09717249
   1.90932203  2.36598386  0.54620435
   3.56892295  5.47102280  6.22313664
   1.71476999  1.23496380  6.33619097
   3.76351179  4.33995724  0.43312965
   0.57544710  5.30210115  1.95712011
   4.90286638  2.19711347  4.81225456
   5.94594506  0.24488577  1.55324000
  -0.46764658  3.34991784  5.21610880
   0.55431857  2.09483363  2.65179757
   4.92397862  5.19982866  4.11753328
   0.37110885  0.76904526  3.83221532
   5.10722007  3.87403276  2.93710016
   2.89744551  1.02711290  4.12245462
   2.58085944  4.13202363  2.64683262
  -0.47541052  6.15417747  6.12126120
   5.95364385  3.04915853  0.64807731



--------------------------------------------------------------------------------------------------------


 k-point   1 :   0.0000 0.0000 0.0000  plane waves:   20055
 k-point   2 :   0.2500 0.0000 0.0000  plane waves:   20080
 k-point   3 :   0.5000 0.0000 0.0000  plane waves:   20022
 k-point   4 :   0.0000 0.2500 0.0000  plane waves:   20078
 k-point   5 :   0.2500 0.2500 0.0000  plane waves:   20073
 k-point   6 :  -0.2500 0.2500 0.0000  plane waves:   20073
 k-point   7 :   0.5000 0.2500 0.0000  plane waves:   20092
 k-point   8 :   0.0000 0.5000 0.0000  plane waves:   20108
 k-point   9 :   0.2500 0.5000 0.0000  plane waves:   20100
 k-point  10 :   0.5000 0.5000 0.0000  plane waves:   20112
 k-point  11 :   0.0000 0.0000 0.2500  plane waves:   20054
 k-point  12 :   0.2500 0.0000 0.2500  plane waves:   20057
 k-point  13 :   0.5000 0.0000 0.2500  plane waves:   20056
 k-point  14 :  -0.2500 0.0000 0.2500  plane waves:   20077
 k-point  15 :   0.0000 0.2500 0.2500  plane waves:   20068
 k-point  16 :   0.0000 0.2500-0.2500  plane waves:   20068
 k-point  17 :   0.2500 0.2500 0.2500  plane waves:   20069
 k-point  18 :  -0.2500 0.2500-0.2500  plane waves:   20069
 k-point  19 :   0.5000 0.2500 0.2500  plane waves:   20092
 k-point  20 :   0.5000 0.2500-0.2500  plane waves:   20092
 k-point  21 :  -0.2500 0.2500 0.2500  plane waves:   20079
 k-point  22 :   0.2500 0.2500-0.2500  plane waves:   20079
 k-point  23 :   0.0000 0.5000 0.2500  plane waves:   20068
 k-point  24 :   0.2500 0.5000 0.2500  plane waves:   20082
 k-point  25 :   0.5000 0.5000 0.2500  plane waves:   20104
 k-point  26 :  -0.2500 0.5000 0.2500  plane waves:   20068
 k-point  27 :   0.0000 0.0000 0.5000  plane waves:   20064
 k-point  28 :   0.2500 0.0000 0.5000  plane waves:   20066
 k-point  29 :   0.5000 0.0000 0.5000  plane waves:   20074
 k-point  30 :   0.0000 0.2500 0.5000  plane waves:   20048
 k-point  31 :   0.2500 0.2500 0.5000  plane waves:   20065
 k-point  32 :  -0.2500 0.2500 0.5000  plane waves:   20065
 k-point  33 :   0.5000 0.2500 0.5000  plane waves:   20094
 k-point  34 :   0.0000 0.5000 0.5000  plane waves:   20072
 k-point  35 :   0.2500 0.5000 0.5000  plane waves:   20056
 k-point  36 :   0.5000 0.5000 0.5000  plane waves:   20088

 maximum and minimum number of plane-waves per node :       648      600

 maximum number of plane-waves:     20112
 maximum index in each direction: 
   IXMAX=   17   IYMAX=   16   IZMAX=   17
   IXMIN=  -17   IYMIN=  -16   IZMIN=  -18


 parallel 3D FFT for wavefunctions:
    minimum data exchange during FFTs selected (reduces bandwidth)
 parallel 3D FFT for charge:
    minimum data exchange during FFTs selected (reduces bandwidth)


 total amount of memory used by VASP MPI-rank0    56883. kBytes
=======================================================================

   base      :      30000. kBytes
   nonl-proj :       4691. kBytes
   fftplans  :       1556. kBytes
   grid      :       2939. kBytes
   one-center:          3. kBytes
   wavefun   :      17694. kBytes

     INWAV:  cpu time      0.0001: real time      0.0003
 Broyden mixing: mesh for mixing (old mesh)
   NGX = 35   NGY = 33   NGZ = 35
  (NGX  =140   NGY  =128   NGZ  =144)
  gives a total of  40425 points

 initial charge density was supplied:
 charge density of overlapping atoms calculated
 number of electron      88.0000000 magnetization 
 keeping initial charge density in first step


--------------------------------------------------------------------------------------------------------


 Maximum index for augmentation-charges          515 (set IRDMAX)


--------------------------------------------------------------------------------------------------------


 First call to EWALD:  gamma=   0.271
 Maximum number of real-space cells 3x 3x 3
 Maximum number of reciprocal cells 3x 3x 3

    FEWALD:  cpu time      0.0029: real time      0.0029


--------------------------------------- Ionic step        1  -------------------------------------------




--------------------------------------- Iteration      1(   1)  ---------------------------------------


    POTLOK:  cpu time      0.0508: real time      0.0516
    SETDIJ:  cpu time      0.0069: real time      0.0071
    TRIAL :  cpu time      1.1933: real time      1.2028
    CORREC:  cpu time      0.0023: real time      0.0023
    --------------------------------------------
      LOOP:  cpu time      1.2604: real time      1.2710

 eigenvalue-minimisations  :  4608
 total energy-change (2. order) : 0.6624574E+03  (-0.6595107E+04)
 number of electron      88.0000000 magnetization 
 augmentation part       88.0000000 magnetization 

 Free energy of the ion-electron system (eV)
  ---------------------------------------------------
  alpha Z        PSCENC =        83.55220166
  Ewald energy   TEWEN  =     -1830.01301394
  -Hartree energ DENC   =     -1561.99897331
  -exchange      EXHF   =         0.00000000
  -V(xc)+E(xc)   XCENC  =       229.33246816
  PAW double counting   =      2773.29422179    -2715.13535317
  entropy T*S    EENTRO =        -0.00034687
  eigenvalues    EBANDS =       -11.66026310
  atomic energy  EATOM  =      3695.08646324
  ---------------------------------------------------
  free energy    TOTEN  =       662.45740446 eV

  energy without entropy =      662.45775133  energy(sigma->0) =      662.45757789


--------------------------------------------------------------------------------------------------------




--------------------------------------- Iteration      1(   2)  ---------------------------------------


    TRIAL :  cpu time      1.3399: real time      1.3403
    CORREC:  cpu time      0.0004: real time      0.0004
    --------------------------------------------
      LOOP:  cpu time      1.3540: real time      1.3706

 eigenvalue-minimisations  :  5968
 total energy-change (2. order) :-0.7565415E+03  (-0.7199023E+03)
 number of electron      88.0000000 magnetization 
 augmentation part       88.0000000 magnetization 

 Free energy of the ion-electron system (eV)
  ---------------------------------------------------
  alpha Z        PSCENC =        83.55220166
  Ewald energy   TEWEN  =     -1830.01301394
  -Hartree energ DENC   =     -1561.99897331
  -exchange      EXHF   =         0.00000000
  -V(xc)+E(xc)   XCENC  =       229.33246816
  PAW double counting   =      2773.29422179    -2715.13535317
  entropy T*S    EENTRO =        -0.00000000
  eigenvalues    EBANDS =      -768.20212209
  atomic energy  EATOM  =      3695.08646324
  ---------------------------------------------------
  free energy    TOTEN  =       -94.08410767 eV

  energy without entropy =      -94.08410767  energy(sigma->0) =      -94.08410767


--------------------------------------------------------------------------------------------------------




--------------------------------------- Iteration      1(   3)  ---------------------------------------


    TRIAL :  cpu time      1.3044: real time      1.3048
    CORREC:  cpu time      0.0004: real time      0.0004
    --------------------------------------------
      LOOP:  cpu time      1.3171: real time      1.3346

 eigenvalue-minimisations  :  5736
 total energy-change (2. order) :-0.1126952E+03  (-0.1112414E+03)
 number of electron      88.0000000 magnetization 
 augmentation part       88.0000000 magnetization 

 Free energy of the ion-electron system (eV)
  ---------------------------------------------------
  alpha Z        PSCENC =        83.55220166
  Ewald energy   TEWEN  =     -1830.01301394
  -Hartree energ DENC   =     -1561.99897331
  -exchange      EXHF   =         0.00000000
  -V(xc)+E(xc)   XCENC  =       229.33246816
  PAW double counting   =      2773.29422179    -2715.13535317
  entropy T*S    EENTRO =        -0.00000000
  eigenvalues    EBANDS =      -880.89727443
  atomic energy  EATOM  =      3695.08646324
  ---------------------------------------------------
  free energy    TOTEN  =      -206.77926000 eV

  energy without entropy =     -206.77926000  energy(sigma->0) =     -206.77926000


--------------------------------------------------------------------------------------------------------




--------------------------------------- Iteration      1(   4)  ---------------------------------------


    TRIAL :  cpu time      1.3281: real time      1.3287
    CORREC:  cpu time      0.0004: real time      0.0004
    --------------------------------------------
      LOOP:  cpu time      1.3579: real time      1.3586

 eigenvalue-minimisations  :  5896
 total energy-change (2. order) :-0.3567873E+01  (-0.3551155E+01)
 number of electron      88.0000000 magnetization 
 augmentation part       88.0000000 magnetization 

 Free energy of the ion-electron system (eV)
  ---------------------------------------------------
  alpha Z        PSCENC =        83.55220166
  Ewald energy   TEWEN  =     -1830.01301394
  -Hartree energ DENC   =     -1561.99897331
  -exchange      EXHF   =         0.00000000
  -V(xc)+E(xc)   XCENC  =       229.33246816
  PAW double counting   =      2773.29422179    -2715.13535317
  entropy T*S    EENTRO =        -0.00000000
  eigenvalues    EBANDS =      -884.46514763
  atomic energy  EATOM  =      3695.08646324
  ---------------------------------------------------
  free energy    TOTEN  =      -210.34713320 eV

  energy without entropy =     -210.34713320  energy(sigma->0) =     -210.34713320


--------------------------------------------------------------------------------------------------------




--------------------------------------- Iteration      1(   5)  ---------------------------------------


    TRIAL :  cpu time      1.3979: real time      1.3982
    CORREC:  cpu time      0.0004: real time      0.0004
    CHARGE:  cpu time      0.0508: real time      0.0509
    --------------------------------------------
      LOOP:  cpu time      1.4617: real time      1.4779

 eigenvalue-minimisations  :  6312
 total energy-change (2. order) :-0.1276185E+00  (-0.1275276E+00)
 number of electron      88.0000000 magnetization 
 augmentation part        0.2776580 magnetization 

 Free energy of the ion-electron system (eV)
  ---------------------------------------------------
  alpha Z        PSCENC =        83.55220166
  Ewald energy   TEWEN  =     -1830.01301394
  -Hartree energ DENC   =     -1561.99897331
  -exchange      EXHF   =         0.00000000
  -V(xc)+E(xc)   XCENC  =       229.33246816
  PAW double counting   =      2773.29422179    -2715.13535317
  entropy T*S    EENTRO =        -0.00000000
  eigenvalues    EBANDS =      -884.59276608
  atomic energy  EATOM  =      3695.08646324
  ---------------------------------------------------
  free energy    TOTEN  =      -210.47475165 eV

  energy without entropy =     -210.47475165  energy(sigma->0) =     -210.47475165


--------------------------------------------------------------------------------------------------------




--------------------------------------- Iteration      1(   6)  ---------------------------------------


    POTLOK:  cpu time      0.0241: real time      0.0241
    SETDIJ:  cpu time      0.0018: real time      0.0018
    TRIAL :  cpu time      0.7120: real time      0.7137
    CORREC:  cpu time      0.3728: real time      0.3733
    CHARGE:  cpu time      0.0394: real time      0.0394
    --------------------------------------------
      LOOP:  cpu time      1.1629: real time      1.1815

 eigenvalue-minimisations  :     0
 total energy-change (2. order) : 0.3098738E+02  (-0.1270506E+02)
 number of electron      88.0000000 magnetization 
 augmentation part        0.1712048 magnetization 

 Free energy of the ion-electron system (eV)
  ---------------------------------------------------
  alpha Z        PSCENC =        83.55220166
  Ewald energy   TEWEN  =     -1830.01301394
  -Hartree energ DENC   =     -2002.96811009
  -exchange      EXHF   =         0.00000000
  -V(xc)+E(xc)   XCENC  =       257.32067878
  PAW double counting   =     30623.52286377   -30569.59381295
  entropy T*S    EENTRO =        -0.00000000
  eigenvalues    EBANDS =      -436.39464365
  atomic energy  EATOM  =      3695.08646324
  ---------------------------------------------------
  free energy    TOTEN  =      -179.48737319 eV

  energy without entropy =     -179.48737319  energy(sigma->0) =     -179.48737319


--------------------------------------------------------------------------------------------------------




--------------------------------------- Iteration      1(   7)  ---------------------------------------


    POTLOK:  cpu time      0.0242: real time      0.0242
    SETDIJ:  cpu time      0.0014: real time      0.0014
    TRIAL :  cpu time      0.6577: real time      0.6581
    CORREC:  cpu time      0.3448: real time      0.3448
    CHARGE:  cpu time      0.0387: real time      0.0387
    --------------------------------------------
      LOOP:  cpu time      1.0802: real time      1.0969

 eigenvalue-minimisations  :     0
 total energy-change (2. order) :-0.1271531E+02  (-0.1636093E+01)
 number of electron      88.0000000 magnetization 
 augmentation part        0.1419998 magnetization 

 Free energy of the ion-electron system (eV)
  ---------------------------------------------------
  alpha Z        PSCENC =        83.55220166
  Ewald energy   TEWEN  =     -1830.01301394
  -Hartree energ DENC   =     -1802.26669426
  -exchange      EXHF   =         0.00000000
  -V(xc)+E(xc)   XCENC  =       245.78003239
  PAW double counting   =     38608.68977776   -38552.63173771
  entropy T*S    EENTRO =        -0.00000000
  eigenvalues    EBANDS =      -640.39971643
  atomic energy  EATOM  =      3695.08646324
  ---------------------------------------------------
  free energy    TOTEN  =      -192.20268730 eV

  energy without entropy =     -192.20268730  energy(sigma->0) =     -192.20268730


--------------------------------------------------------------------------------------------------------




--------------------------------------- Iteration      1(   8)  ---------------------------------------


    POTLOK:  cpu time      0.0237: real time      0.0237
    SETDIJ:  cpu time      0.0019: real time      0.0019
    TRIAL :  cpu time      0.6614: real time      0.6617
    CORREC:  cpu time      0.3428: real time      0.3428
    CHARGE:  cpu time      0.0384: real time      0.0384
    --------------------------------------------
      LOOP:  cpu time      1.0822: real time      1.0968

 eigenvalue-minimisations  :     0
 total energy-change (2. order) :-0.1643420E+01  (-0.6327725E+00)
 number of electron      88.0000000 magnetization 
 augmentation part        0.1385733 magnetization 

 Free energy of the ion-electron system (eV)
  ---------------------------------------------------
  alpha Z        PSCENC =        83.55220166
  Ewald energy   TEWEN  =     -1830.01301394
  -Hartree energ DENC   =     -1802.51892633
  -exchange      EXHF   =         0.00000000
  -V(xc)+E(xc)   XCENC  =       245.87918512
  PAW double counting   =     38077.38278063   -38021.19923293
  entropy T*S    EENTRO =        -0.00000000
  eigenvalues    EBANDS =      -642.01556523
  atomic energy  EATOM  =      3695.08646324
  ---------------------------------------------------
  free energy    TOTEN  =      -193.84610778 eV

  energy without entropy =     -193.84610778  energy(sigma->0) =     -193.84610778


--------------------------------------------------------------------------------------------------------




--------------------------------------- Iteration      1(   9)  ---------------------------------------


    POTLOK:  cpu time      0.0237: real time      0.0241
    SETDIJ:  cpu time      0.0014: real time      0.0014
    TRIAL :  cpu time      0.6599: real time      0.6599
    CORREC:  cpu time      0.3411: real time      0.3414
    CHARGE:  cpu time      0.0385: real time      0.0385
    --------------------------------------------
      LOOP:  cpu time      1.0787: real time      1.0950

 eigenvalue-minimisations  :     0
 total energy-change (2. order) :-0.6314996E+00  (-0.1779022E+00)
 number of electron      88.0000000 magnetization 
 augmentation part        0.1410712 magnetization 

 Free energy of the ion-electron system (eV)
  ---------------------------------------------------
  alpha Z        PSCENC =        83.55220166
  Ewald energy   TEWEN  =     -1830.01301394
  -Hartree energ DENC   =     -1797.10259090
  -exchange      EXHF   =         0.00000000
  -V(xc)+E(xc)   XCENC  =       245.61875221
  PAW double counting   =     38398.45146658   -38342.18595667
  entropy T*S    EENTRO =        -0.00000000
  eigenvalues    EBANDS =      -647.88492954
  atomic energy  EATOM  =      3695.08646324
  ---------------------------------------------------
  free energy    TOTEN  =      -194.47760737 eV

  energy without entropy =     -194.47760737  energy(sigma->0) =     -194.47760737


--------------------------------------------------------------------------------------------------------




--------------------------------------- Iteration      1(  10)  ---------------------------------------


    POTLOK:  cpu time      0.0237: real time      0.0237
    SETDIJ:  cpu time      0.0024: real time      0.0024
    TRIAL :  cpu time      0.6515: real time      0.6515
    CORREC:  cpu time      0.3425: real time      0.3429
    CHARGE:  cpu time      0.0386: real time      0.0386
    --------------------------------------------
      LOOP:  cpu time      1.0748: real time      1.0884

 eigenvalue-minimisations  :     0
 total energy-change (2. order) :-0.1772496E+00  (-0.4366439E-01)
 number of electron      88.0000000 magnetization 
 augmentation part        0.1434283 magnetization 

 Free energy of the ion-electron system (eV)
  ---------------------------------------------------
  alpha Z        PSCENC =        83.55220166
  Ewald energy   TEWEN  =     -1830.01301394
  -Hartree energ DENC   =     -1790.04891334
  -exchange      EXHF   =         0.00000000
  -V(xc)+E(xc)   XCENC  =       245.30554599
  PAW double counting   =     37542.44162327   -37486.17615202
  entropy T*S    EENTRO =        -0.00000000
  eigenvalues    EBANDS =      -654.80261187
  atomic energy  EATOM  =      3695.08646324
  ---------------------------------------------------
  free energy    TOTEN  =      -194.65485701 eV

  energy without entropy =     -194.65485701  energy(sigma->0) =     -194.65485701


--------------------------------------------------------------------------------------------------------




--------------------------------------- Iteration      1(  11)  ---------------------------------------


    POTLOK:  cpu time      0.0237: real time      0.0237
    SETDIJ:  cpu time      0.0022: real time      0.0022
    TRIAL :  cpu time      0.6548: real time      0.6548
    CORREC:  cpu time      0.3427: real time      0.3431
    CHARGE:  cpu time      0.0416: real time      0.0416
    --------------------------------------------
      LOOP:  cpu time      1.0838: real time      1.0949

 eigenvalue-minimisations  :     0
 total energy-change (2. order) :-0.4364096E-01  (-0.1015247E-01)
 number of electron      88.0000000 magnetization 
 augmentation part        0.1414837 magnetization 

 Free energy of the ion-electron system (eV)
  ---------------------------------------------------
  alpha Z        PSCENC =        83.55220166
  Ewald energy   TEWEN  =     -1830.01301394
  -Hartree energ DENC   =     -1790.19397574
  -exchange      EXHF   =         0.00000000
  -V(xc)+E(xc)   XCENC  =       245.28163743
  PAW double counting   =     37111.33001456   -37055.10641301
  entropy T*S    EENTRO =        -0.00000000
  eigenvalues    EBANDS =      -654.63541216
  atomic energy  EATOM  =      3695.08646324
  ---------------------------------------------------
  free energy    TOTEN  =      -194.69849797 eV

  energy without entropy =     -194.69849797  energy(sigma->0) =     -194.69849797


--------------------------------------------------------------------------------------------------------




--------------------------------------- Iteration      1(  12)  ---------------------------------------


    POTLOK:  cpu time      0.0238: real time      0.0238
    SETDIJ:  cpu time      0.0017: real time      0.0017
    TRIAL :  cpu time      0.6908: real time      0.6908
    CORREC:  cpu time      0.3414: real time      0.3417
    CHARGE:  cpu time      0.0384: real time      0.0384
    --------------------------------------------
      LOOP:  cpu time      1.1082: real time      1.1248

 eigenvalue-minimisations  :     0
 total energy-change (2. order) :-0.1014669E-01  (-0.2572961E-02)
 number of electron      88.0000000 magnetization 
 augmentation part        0.1417601 magnetization 

 Free energy of the ion-electron system (eV)
  ---------------------------------------------------
  alpha Z        PSCENC =        83.55220166
  Ewald energy   TEWEN  =     -1830.01301394
  -Hartree energ DENC   =     -1789.54173963
  -exchange      EXHF   =         0.00000000
  -V(xc)+E(xc)   XCENC  =       245.20284360
  PAW double counting   =     37141.14789928   -37084.91493843
  entropy T*S    EENTRO =        -0.00000000
  eigenvalues    EBANDS =      -655.22836043
  atomic energy  EATOM  =      3695.08646324
  ---------------------------------------------------
  free energy    TOTEN  =      -194.70864465 eV

  energy without entropy =     -194.70864465  energy(sigma->0) =     -194.70864465


--------------------------------------------------------------------------------------------------------




--------------------------------------- Iteration      1(  13)  ---------------------------------------


    POTLOK:  cpu time      0.0235: real time      0.0235
    SETDIJ:  cpu time      0.0020: real time      0.0020
    TRIAL :  cpu time      0.6539: real time      0.6543
    CORREC:  cpu time      0.3447: real time      0.3447
    CHARGE:  cpu time      0.0385: real time      0.0385
    --------------------------------------------
      LOOP:  cpu time      1.0822: real time      1.0960

 eigenvalue-minimisations  :     0
 total energy-change (2. order) :-0.2573161E-02  (-0.6997384E-03)
 number of electron      88.0000000 magnetization 
 augmentation part        0.1417859 magnetization 

 Free energy of the ion-electron system (eV)
  ---------------------------------------------------
  alpha Z        PSCENC =        83.55220166
  Ewald energy   TEWEN  =     -1830.01301394
  -Hartree energ DENC   =     -1789.84552144
  -exchange      EXHF   =         0.00000000
  -V(xc)+E(xc)   XCENC  =       245.21836267
  PAW double counting   =     37184.14216988   -37127.91474324
  entropy T*S    EENTRO =        -0.00000000
  eigenvalues    EBANDS =      -654.93713664
  atomic energy  EATOM  =      3695.08646324
  ---------------------------------------------------
  free energy    TOTEN  =      -194.71121781 eV

  energy without entropy =     -194.71121781  energy(sigma->0) =     -194.71121781


--------------------------------------------------------------------------------------------------------




--------------------------------------- Iteration      1(  14)  ---------------------------------------


    POTLOK:  cpu time      0.0234: real time      0.0234
    SETDIJ:  cpu time      0.0021: real time      0.0021
    TRIAL :  cpu time      0.6519: real time      0.6523
    CORREC:  cpu time      0.3427: real time      0.3427
    CHARGE:  cpu time      0.0387: real time      0.0387
    --------------------------------------------
      LOOP:  cpu time      1.0730: real time      1.0892

 eigenvalue-minimisations  :     0
 total energy-change (2. order) :-0.7015987E-03  (-0.2167939E-03)
 number of electron      88.0000000 magnetization 
 augmentation part        0.1421060 magnetization 

 Free energy of the ion-electron system (eV)
  ---------------------------------------------------
  alpha Z        PSCENC =        83.55220166
  Ewald energy   TEWEN  =     -1830.01301394
  -Hartree energ DENC   =     -1789.50245190
  -exchange      EXHF   =         0.00000000
  -V(xc)+E(xc)   XCENC  =       245.19608989
  PAW double counting   =     37223.65344931   -37167.42263921
  entropy T*S    EENTRO =        -0.00000000
  eigenvalues    EBANDS =      -655.26201847
  atomic energy  EATOM  =      3695.08646324
  ---------------------------------------------------
  free energy    TOTEN  =      -194.71191941 eV

  energy without entropy =     -194.71191941  energy(sigma->0) =     -194.71191941


--------------------------------------------------------------------------------------------------------




--------------------------------------- Iteration      1(  15)  ---------------------------------------


    POTLOK:  cpu time      0.0236: real time      0.0236
    SETDIJ:  cpu time      0.0017: real time      0.0017
    TRIAL :  cpu time      0.6763: real time      0.6767
    CORREC:  cpu time      0.3406: real time      0.3407
    CHARGE:  cpu time      0.0386: real time      0.0386
    --------------------------------------------
      LOOP:  cpu time      1.1101: real time      1.1107

 eigenvalue-minimisations  :     0
 total energy-change (2. order) :-0.2170254E-03  (-0.7299940E-04)
 number of electron      88.0000000 magnetization 
 augmentation part        0.1420605 magnetization 

 Free energy of the ion-electron system (eV)
  ---------------------------------------------------
  alpha Z        PSCENC =        83.55220166
  Ewald energy   TEWEN  =     -1830.01301394
  -Hartree energ DENC   =     -1789.83537924
  -exchange      EXHF   =         0.00000000
  -V(xc)+E(xc)   XCENC  =       245.21194449
  PAW double counting   =     37209.67457980   -37153.44703469
  entropy T*S    EENTRO =        -0.00000000
  eigenvalues    EBANDS =      -654.94189775
  atomic energy  EATOM  =      3695.08646324
  ---------------------------------------------------
  free energy    TOTEN  =      -194.71213644 eV

  energy without entropy =     -194.71213644  energy(sigma->0) =     -194.71213644


--------------------------------------------------------------------------------------------------------




--------------------------------------- Iteration      1(  16)  ---------------------------------------


    POTLOK:  cpu time      0.0235: real time      0.0235
    SETDIJ:  cpu time      0.0018: real time      0.0018
    TRIAL :  cpu time      0.6551: real time      0.6556
    CORREC:  cpu time      0.3410: real time      0.3410
    CHARGE:  cpu time      0.0392: real time      0.0392
    --------------------------------------------
      LOOP:  cpu time      1.0767: real time      1.0907

 eigenvalue-minimisations  :     0
 total energy-change (2. order) :-0.7363374E-04  (-0.2407733E-04)
 number of electron      88.0000000 magnetization 
 augmentation part        0.1421426 magnetization 

 Free energy of the ion-electron system (eV)
  ---------------------------------------------------
  alpha Z        PSCENC =        83.55220166
  Ewald energy   TEWEN  =     -1830.01301394
  -Hartree energ DENC   =     -1789.73281327
  -exchange      EXHF   =         0.00000000
  -V(xc)+E(xc)   XCENC  =       245.20683524
  PAW double counting   =     37205.20131866   -37148.97228196
  entropy T*S    EENTRO =        -0.00000000
  eigenvalues    EBANDS =      -655.04091970
  atomic energy  EATOM  =      3695.08646324
  ---------------------------------------------------
  free energy    TOTEN  =      -194.71221007 eV

  energy without entropy =     -194.71221007  energy(sigma->0) =     -194.71221007


--------------------------------------------------------------------------------------------------------




--------------------------------------- Iteration      1(  17)  ---------------------------------------


    POTLOK:  cpu time      0.0236: real time      0.0236
    SETDIJ:  cpu time      0.0019: real time      0.0019
    TRIAL :  cpu time      0.6509: real time      0.6514
    CORREC:  cpu time      0.3455: real time      0.3455
    CHARGE:  cpu time      0.0383: real time      0.0383
    --------------------------------------------
      LOOP:  cpu time      1.0721: real time      1.0907

 eigenvalue-minimisations  :     0
 total energy-change (2. order) :-0.2408846E-04  (-0.7436956E-05)
 number of electron      88.0000000 magnetization 
 augmentation part        0.1420654 magnetization 

 Free energy of the ion-electron system (eV)
  ---------------------------------------------------
  alpha Z        PSCENC =        83.55220166
  Ewald energy   TEWEN  =     -1830.01301394
  -Hartree energ DENC   =     -1789.79919293
  -exchange      EXHF   =         0.00000000
  -V(xc)+E(xc)   XCENC  =       245.21128059
  PAW double counting   =     37205.72855076   -37149.50019849
  entropy T*S    EENTRO =        -0.00000000
  eigenvalues    EBANDS =      -654.97832505
  atomic energy  EATOM  =      3695.08646324
  ---------------------------------------------------
  free energy    TOTEN  =      -194.71223416 eV

  energy without entropy =     -194.71223416  energy(sigma->0) =     -194.71223416


--------------------------------------------------------------------------------------------------------




--------------------------------------- Iteration      1(  18)  ---------------------------------------


    POTLOK:  cpu time      0.0236: real time      0.0236
    SETDIJ:  cpu time      0.0020: real time      0.0020
    TRIAL :  cpu time      0.6580: real time      0.6585
    CORREC:  cpu time      0.3409: real time      0.3409
    CHARGE:  cpu time      0.0385: real time      0.0385
    --------------------------------------------
      LOOP:  cpu time      1.0920: real time      1.0926

 eigenvalue-minimisations  :     0
 total energy-change (2. order) :-0.7277333E-05  (-0.2282604E-05)
 number of electron      88.0000000 magnetization 
 augmentation part        0.1420720 magnetization 

 Free energy of the ion-electron system (eV)
  ---------------------------------------------------
  alpha Z        PSCENC =        83.55220166
  Ewald energy   TEWEN  =     -1830.01301394
  -Hartree energ DENC   =     -1789.78264873
  -exchange      EXHF   =         0.00000000
  -V(xc)+E(xc)   XCENC  =       245.21015614
  PAW double counting   =     37208.42169860   -37152.19277274
  entropy T*S    EENTRO =        -0.00000000
  eigenvalues    EBANDS =      -654.99432567
  atomic energy  EATOM  =      3695.08646324
  ---------------------------------------------------
  free energy    TOTEN  =      -194.71224144 eV

  energy without entropy =     -194.71224144  energy(sigma->0) =     -194.71224144


--------------------------------------------------------------------------------------------------------




--------------------------------------- Iteration      1(  19)  ---------------------------------------


    POTLOK:  cpu time      0.0240: real time      0.0240
    SETDIJ:  cpu time      0.0012: real time      0.0012
    TRIAL :  cpu time      0.6510: real time      0.6515
    CORREC:  cpu time      0.3410: real time      0.3410
    CHARGE:  cpu time      0.0384: real time      0.0389
    --------------------------------------------
      LOOP:  cpu time      1.0674: real time      1.0859

 eigenvalue-minimisations  :     0
 total energy-change (2. order) :-0.2234126E-05  (-0.6677742E-06)
 number of electron      88.0000000 magnetization 
 augmentation part        0.1420602 magnetization 

 Free energy of the ion-electron system (eV)
  ---------------------------------------------------
  alpha Z        PSCENC =        83.55220166
  Ewald energy   TEWEN  =     -1830.01301394
  -Hartree energ DENC   =     -1789.79446883
  -exchange      EXHF   =         0.00000000
  -V(xc)+E(xc)   XCENC  =       245.21118858
  PAW double counting   =     37207.84175378   -37151.61308533
  entropy T*S    EENTRO =        -0.00000000
  eigenvalues    EBANDS =      -654.98328283
  atomic energy  EATOM  =      3695.08646324
  ---------------------------------------------------
  free energy    TOTEN  =      -194.71224367 eV

  energy without entropy =     -194.71224367  energy(sigma->0) =     -194.71224367


--------------------------------------------------------------------------------------------------------




--------------------------------------- Iteration      1(  20)  ---------------------------------------


    POTLOK:  cpu time      0.0245: real time      0.0245
    SETDIJ:  cpu time      0.0007: real time      0.0007
    TRIAL :  cpu time      0.6509: real time      0.6509
    CORREC:  cpu time      0.3402: real time      0.3407
    CHARGE:  cpu time      0.0404: real time      0.0404
    --------------------------------------------
      LOOP:  cpu time      1.0699: real time      1.0871

 eigenvalue-minimisations  :     0
 total energy-change (2. order) :-0.6646951E-06  (-0.1941442E-06)
 number of electron      88.0000000 magnetization 
 augmentation part        0.1420662 magnetization 

 Free energy of the ion-electron system (eV)
  ---------------------------------------------------
  alpha Z        PSCENC =        83.55220166
  Ewald energy   TEWEN  =     -1830.01301394
  -Hartree energ DENC   =     -1789.78238571
  -exchange      EXHF   =         0.00000000
  -V(xc)+E(xc)   XCENC  =       245.21056022
  PAW double counting   =     37207.22794445   -37150.99917993
  entropy T*S    EENTRO =        -0.00000000
  eigenvalues    EBANDS =      -654.99483432
  atomic energy  EATOM  =      3695.08646324
  ---------------------------------------------------
  free energy    TOTEN  =      -194.71224434 eV

  energy without entropy =     -194.71224434  energy(sigma->0) =     -194.71224434


--------------------------------------------------------------------------------------------------------




--------------------------------------- Iteration      1(  21)  ---------------------------------------


    POTLOK:  cpu time      0.0234: real time      0.0234
    SETDIJ:  cpu time      0.0021: real time      0.0021
    TRIAL :  cpu time      0.6523: real time      0.6523
    CORREC:  cpu time      0.3410: real time      0.3414
    CHARGE:  cpu time      0.0386: real time      0.0386
    --------------------------------------------
      LOOP:  cpu time      1.0872: real time      1.0879

 eigenvalue-minimisations  :     0
 total energy-change (2. order) :-0.1904264E-06  (-0.3848742E-07)
 number of electron      88.0000000 magnetization 
 augmentation part        0.1420646 magnetization 

 Free energy of the ion-electron system (eV)
  ---------------------------------------------------
  alpha Z        PSCENC =        83.55220166
  Ewald energy   TEWEN  =     -1830.01301394
  -Hartree energ DENC   =     -1789.78770532
  -exchange      EXHF   =         0.00000000
  -V(xc)+E(xc)   XCENC  =       245.21079848
  PAW double counting   =     37206.43976812   -37150.21108796
  entropy T*S    EENTRO =        -0.00000000
  eigenvalues    EBANDS =      -654.98966881
  atomic energy  EATOM  =      3695.08646324
  ---------------------------------------------------
  free energy    TOTEN  =      -194.71224453 eV

  energy without entropy =     -194.71224453  energy(sigma->0) =     -194.71224453


--------------------------------------------------------------------------------------------------------




--------------------------------------- Iteration      1(  22)  ---------------------------------------


    POTLOK:  cpu time      0.0235: real time      0.0235
    SETDIJ:  cpu time      0.0022: real time      0.0022
    TRIAL :  cpu time      0.6809: real time      0.6809
    CORREC:  cpu time      0.3479: real time      0.3484
    EDDIAG:  cpu time      0.3026: real time      0.3036
    CHARGE:  cpu time      0.0378: real time      0.0378
    --------------------------------------------
      LOOP:  cpu time      1.4097: real time      1.4258

 eigenvalue-minimisations  :     0
 total energy-change (2. order) :-0.3977038E-07  (-0.1368587E-07)
 number of electron      88.0000000 magnetization 
 augmentation part        0.1420644 magnetization 

 Free energy of the ion-electron system (eV)
  ---------------------------------------------------
  alpha Z        PSCENC =        83.55220166
  Ewald energy   TEWEN  =     -1830.01301394
  -Hartree energ DENC   =     -1789.78471037
  -exchange      EXHF   =         0.00000000
  -V(xc)+E(xc)   XCENC  =       245.21063463
  PAW double counting   =     37206.38460950   -37150.15590525
  entropy T*S    EENTRO =        -0.00000000
  eigenvalues    EBANDS =      -654.99252403
  atomic energy  EATOM  =      3695.08646324
  ---------------------------------------------------
  free energy    TOTEN  =      -194.71224457 eV

  energy without entropy =     -194.71224457  energy(sigma->0) =     -194.71224457


--------------------------------------------------------------------------------------------------------


  average scaling for gradient   0.8585


 average (electrostatic) potential at core
  the test charge radii are     0.5770  0.4325  0.5955
  (the norm of the test charge is              1.0000)
       1 -83.0062       2 -83.0063       3 -80.8556       4 -80.8557       5 -80.7369
       6 -80.7369       7 -82.9150       8 -82.9150       9 -80.7628      10 -80.7628
      11 -80.7363      12 -80.7364      13 -39.6016      14 -39.6017      15 -39.7733
      16 -39.7733      17 -39.6433      18 -39.6433      19 -39.4227      20 -39.4227
      21 -39.5054      22 -39.5054      23 -39.6189      24 -39.6189      25 -39.6314
      26 -39.6314      27 -39.3895      28 -39.3894      29-113.9903      30-113.9903
      31-113.8826      32-113.8827



 E-fermi :  -0.0712     XC(G=0):  -8.2323     alpha+bet : -7.2469

 Fermi energy:        -0.0711808461

 k-point     1 :       0.0000    0.0000    0.0000
  band No.  band energies     occupation 
      1     -20.8288      2.00000
      2     -20.6597      2.00000
      3     -20.6483      2.00000
      4     -20.5800      2.00000
      5     -15.2510      2.00000
      6     -15.2003      2.00000
      7     -13.4836      2.00000
      8     -13.4338      2.00000
      9     -11.9647      2.00000
     10     -11.9407      2.00000
     11     -10.8371      2.00000
     12     -10.5307      2.00000
     13      -8.7269      2.00000
     14      -8.3611      2.00000
     15      -7.2944      2.00000
     16      -6.9955      2.00000
     17      -6.7643      2.00000
     18      -6.4886      2.00000
     19      -6.1759      2.00000
     20      -6.1438      2.00000
     21      -6.1075      2.00000
     22      -5.9387      2.00000
     23      -5.2499      2.00000
     24      -5.1665      2.00000
     25      -4.9495      2.00000
     26      -4.8412      2.00000
     27      -4.7427      2.00000
     28      -4.5803      2.00000
     29      -4.3447      2.00000
     30      -4.2214      2.00000
     31      -4.0330      2.00000
     32      -3.9554      2.00000
     33      -3.8937      2.00000
     34      -3.7935      2.00000
     35      -3.3524      2.00000
     36      -3.3129      2.00000
     37      -2.9231      2.00000
     38      -2.8441      2.00000
     39      -2.6876      2.00000
     40      -2.5119      2.00000
     41      -0.7060      2.00000
     42      -0.5235      2.00000
     43      -0.4396      2.00000
     44      -0.2657      2.00000
     45       3.3119      0.00000
     46       3.4897      0.00000
     47       3.6575      0.00000
[...]
      2     -20.6819      2.00000
      3     -20.6401      2.00000
      4     -20.5933      2.00000
      5     -15.2782      2.00000
      6     -15.1676      2.00000
      7     -13.6110      2.00000
      8     -13.4476      2.00000
      9     -11.9506      2.00000
     10     -11.9450      2.00000
     11     -10.5960      2.00000
     12     -10.5399      2.00000
     13      -8.3573      2.00000
     14      -8.2975      2.00000
     15      -7.1647      2.00000
     16      -7.1249      2.00000
     17      -6.8856      2.00000
     18      -6.8187      2.00000
     19      -6.2527      2.00000
     20      -6.1842      2.00000
     21      -6.1136      2.00000
     22      -6.0201      2.00000
     23      -5.4045      2.00000
     24      -5.2463      2.00000
     25      -5.0013      2.00000
     26      -4.8817      2.00000
     27      -4.6933      2.00000
     28      -4.5318      2.00000
     29      -4.3644      2.00000
     30      -4.2457      2.00000
     31      -4.1670      2.00000
     32      -4.1499      2.00000
     33      -3.8253      2.00000
     34      -3.5508      2.00000
     35      -3.3484      2.00000
     36      -3.1739      2.00000
     37      -3.0579      2.00000
     38      -2.9791      2.00000
     39      -2.6775      2.00000
     40      -2.5093      2.00000
     41      -0.4082      2.00000
     42      -0.3020      2.00000
     43      -0.1901      2.00000
     44      -0.1232      2.00000
     45       3.2266      0.00000
     46       3.6165      0.00000
     47       3.6406      0.00000
     48       3.8261      0.00000
     49       6.2193      0.00000
     50       6.3843      0.00000
     51       6.6043      0.00000
     52       6.7792      0.00000
     53       7.3568      0.00000
     54       7.6553      0.00000
     55       8.0307      0.00000
     56       8.2203      0.00000
     57       8.2618      0.00000
     58       8.4861      0.00000
     59       8.9036      0.00000
     60       9.1172      0.00000
     61       9.2505      0.00000
     62       9.5617      0.00000
     63       9.9163      0.00000
     64      10.0931      0.00000

 k-point    34 :       0.0000    0.5000    0.5000
  band No.  band energies     occupation 
      1     -20.7410      2.00000
      2     -20.7408      2.00000
      3     -20.6176      2.00000
      4     -20.6176      2.00000
      5     -15.2396      2.00000
      6     -15.2395      2.00000
      7     -13.4773      2.00000
      8     -13.4773      2.00000
      9     -11.9303      2.00000
     10     -11.9303      2.00000
     11     -10.6386      2.00000
     12     -10.6386      2.00000
     13      -8.4237      2.00000
     14      -8.4237      2.00000
     15      -7.2207      2.00000
     16      -7.2207      2.00000
     17      -6.6443      2.00000
     18      -6.6443      2.00000
     19      -6.2997      2.00000
     20      -6.2997      2.00000
     21      -6.0959      2.00000
     22      -6.0959      2.00000
     23      -5.1549      2.00000
     24      -5.1549      2.00000
     25      -5.0166      2.00000
     26      -5.0166      2.00000
     27      -4.5942      2.00000
     28      -4.5942      2.00000
     29      -4.2883      2.00000
     30      -4.2883      2.00000
     31      -4.0932      2.00000
     32      -4.0932      2.00000
     33      -3.6761      2.00000
     34      -3.6761      2.00000
     35      -3.2756      2.00000
     36      -3.2756      2.00000
     37      -3.0173      2.00000
     38      -3.0173      2.00000
     39      -2.6153      2.00000
     40      -2.6153      2.00000
     41      -0.3516      2.00000
     42      -0.3515      2.00000
     43      -0.2214      2.00000
     44      -0.2214      2.00000
     45       3.4154      0.00000
     46       3.4155      0.00000
     47       3.7026      0.00000
     48       3.7027      0.00000
     49       6.3218      0.00000
     50       6.3218      0.00000
     51       6.5715      0.00000
     52       6.5716      0.00000
     53       7.5900      0.00000
     54       7.5900      0.00000
     55       8.2815      0.00000
     56       8.2815      0.00000
     57       8.6171      0.00000
     58       8.6234      0.00000
     59       8.8340      0.00000
     60       8.8532      0.00000
     61       9.2814      0.00000
     62       9.2913      0.00000
     63       9.9057      0.00000
     64       9.9222      0.00000

 k-point    35 :       0.2500    0.5000    0.5000
  band No.  band energies     occupation 
      1     -20.7412      2.00000
      2     -20.7411      2.00000
      3     -20.6171      2.00000
      4     -20.6171      2.00000
      5     -15.2317      2.00000
      6     -15.2317      2.00000
      7     -13.5044      2.00000
      8     -13.5044      2.00000
      9     -11.9390      2.00000
     10     -11.9390      2.00000
     11     -10.6056      2.00000
     12     -10.6055      2.00000
     13      -8.3753      2.00000
     14      -8.3753      2.00000
     15      -7.1868      2.00000
     16      -7.1868      2.00000
     17      -6.7665      2.00000
     18      -6.7665      2.00000
     19      -6.2202      2.00000
     20      -6.2202      2.00000
     21      -6.0668      2.00000
     22      -6.0668      2.00000
     23      -5.2310      2.00000
     24      -5.2310      2.00000
     25      -5.0154      2.00000
     26      -5.0154      2.00000
     27      -4.6109      2.00000
     28      -4.6109      2.00000
     29      -4.3263      2.00000
     30      -4.3263      2.00000
     31      -4.0922      2.00000
     32      -4.0922      2.00000
     33      -3.6888      2.00000
     34      -3.6888      2.00000
     35      -3.2580      2.00000
     36      -3.2580      2.00000
     37      -3.0099      2.00000
     38      -3.0098      2.00000
     39      -2.6087      2.00000
     40      -2.6087      2.00000
     41      -0.3571      2.00000
     42      -0.3570      2.00000
     43      -0.1838      2.00000
     44      -0.1838      2.00000
     45       3.4057      0.00000
     46       3.4058      0.00000
     47       3.7095      0.00000
     48       3.7096      0.00000
     49       6.3330      0.00000
     50       6.3330      0.00000
     51       6.7568      0.00000
     52       6.7568      0.00000
     53       7.4583      0.00000
     54       7.4584      0.00000
     55       8.0289      0.00000
     56       8.0294      0.00000
     57       8.5056      0.00000
     58       8.5071      0.00000
     59       8.9037      0.00000
     60       8.9310      0.00000
     61       9.4656      0.00000
     62       9.5241      0.00000
     63       9.7165      0.00000
     64       9.9227      0.00000

 k-point    36 :       0.5000    0.5000    0.5000
  band No.  band energies     occupation 
      1     -20.7414      2.00000
      2     -20.7413      2.00000
      3     -20.6166      2.00000
      4     -20.6166      2.00000
      5     -15.2237      2.00000
      6     -15.2237      2.00000
      7     -13.5315      2.00000
      8     -13.5315      2.00000
      9     -11.9469      2.00000
     10     -11.9469      2.00000
     11     -10.5743      2.00000
     12     -10.5743      2.00000
     13      -8.3236      2.00000
     14      -8.3236      2.00000
     15      -7.0867      2.00000
     16      -7.0867      2.00000
     17      -6.9497      2.00000
     18      -6.9497      2.00000
     19      -6.1290      2.00000
     20      -6.1290      2.00000
     21      -6.0439      2.00000
     22      -6.0439      2.00000
     23      -5.3161      2.00000
     24      -5.3161      2.00000
     25      -5.0399      2.00000
     26      -5.0398      2.00000
     27      -4.6188      2.00000
     28      -4.6188      2.00000
     29      -4.2758      2.00000
     30      -4.2758      2.00000
     31      -4.1880      2.00000
     32      -4.1879      2.00000
     33      -3.6574      2.00000
     34      -3.6574      2.00000
     35      -3.2727      2.00000
     36      -3.2727      2.00000
     37      -2.9947      2.00000
     38      -2.9947      2.00000
     39      -2.5999      2.00000
     40      -2.5999      2.00000
     41      -0.3596      2.00000
     42      -0.3596      2.00000
     43      -0.1497      2.00000
     44      -0.1497      2.00000
     45       3.3977      0.00000
     46       3.3979      0.00000
     47       3.7120      0.00000
     48       3.7120      0.00000
     49       6.4120      0.00000
     50       6.4121      0.00000
     51       7.0454      0.00000
     52       7.0454      0.00000
     53       7.1255      0.00000
     54       7.1256      0.00000
     55       7.8588      0.00000
     56       7.8588      0.00000
     57       8.3999      0.00000
     58       8.4001      0.00000
     59       9.1359      0.00000
     60       9.1454      0.00000
     61       9.3027      0.00000
     62       9.3338      0.00000
     63       9.7884      0.00000
     64       9.9820      0.00000


--------------------------------------------------------------------------------------------------------


 soft charge-density along one line, spin component           1
         0         1         2         3         4         5         6         7         8         9
 total charge-density along one line

 pseudopotential strength for first ion, spin component:           1
 12.597  21.196  -0.000   0.008   0.005  -0.000   0.014   0.008
 21.196  35.664  -0.000   0.014   0.008  -0.000   0.024   0.014
 -0.000  -0.000  -3.138  -0.000   0.000  -5.622  -0.000   0.000
  0.008   0.014  -0.000  -3.135  -0.001  -0.000  -5.616  -0.002
  0.005   0.008   0.000  -0.001  -3.134   0.000  -0.002  -5.614
 -0.000  -0.000  -5.622  -0.000   0.000 -10.049  -0.000   0.000
  0.014   0.024  -0.000  -5.616  -0.002  -0.000 -10.039  -0.003
  0.008   0.014   0.000  -0.002  -5.614   0.000  -0.003 -10.035
 total augmentation occupancy for first ion, spin component:           1
  7.825  -2.831  -0.057   2.215   1.129   0.025  -1.042  -0.532
 -2.831   1.126   0.027  -1.132  -0.581  -0.012   0.511   0.262
 -0.057   0.027   2.698  -0.078  -0.024  -0.754   0.031   0.014
  2.215  -1.132  -0.078   8.322   1.412   0.031  -3.004  -0.650
  1.129  -0.581  -0.024   1.412   6.348   0.014  -0.650  -2.088
  0.025  -0.012  -0.754   0.031   0.014   0.213  -0.012  -0.007
 -1.042   0.511   0.031  -3.004  -0.650  -0.012   1.125   0.289
 -0.532   0.262   0.014  -0.650  -2.088  -0.007   0.289   0.716


------------------------ aborting loop because EDIFF is reached ----------------------------------------


    FORLOC:  cpu time      0.0044: real time      0.0044
    FORNL :  cpu time      0.4484: real time      0.4496
    FORCOR:  cpu time      0.0269: real time      0.0269
    OFIELD:  cpu time      0.0029: real time      0.0034

 VOLUME and BASIS-vectors are now :
 -----------------------------------------------------------------------------
  energy-cutoff  :     1000.00
  volume of cell :      279.55
      direct lattice vectors                 reciprocal lattice vectors
     6.650000000  0.000000000  0.000000000     0.150375940 -0.000000000  0.026028459
     0.000000000  6.210000000  0.000000000     0.000000000  0.161030596 -0.000000000
    -1.171700000  0.000000000  6.769340000     0.000000000  0.000000000  0.147724889

  length of vectors
     6.650000000  6.210000000  6.869995992     0.152611939  0.161030596  0.147724889


 FORCES acting on ions:
    Electron-Ion                     Ewald-Force                    Non-Local-Force
 -----------------------------------------------------------------------------------------------
   0.354E+02 -.791E+01 0.560E+02   -.377E+02 0.791E+01 -.598E+02   0.231E+01 0.227E-02 0.375E+01
   -.354E+02 -.792E+01 -.560E+02   0.377E+02 0.792E+01 0.598E+02   -.231E+01 0.205E-02 -.375E+01
   -.103E+03 0.104E+01 0.373E+02   0.105E+03 -.507E+00 -.366E+02   -.206E+01 -.501E+00 -.751E+00
   0.103E+03 0.104E+01 -.373E+02   -.105E+03 -.501E+00 0.366E+02   0.206E+01 -.501E+00 0.751E+00
   -.491E+02 -.573E+02 0.671E+02   0.496E+02 0.579E+02 -.696E+02   -.439E+00 -.596E+00 0.268E+01
   0.491E+02 -.573E+02 -.671E+02   -.496E+02 0.579E+02 0.696E+02   0.439E+00 -.596E+00 -.268E+01
   -.130E+02 -.251E+02 -.435E+02   0.144E+02 0.268E+02 0.471E+02   -.145E+01 -.161E+01 -.353E+01
   0.130E+02 -.251E+02 0.435E+02   -.144E+02 0.268E+02 -.471E+02   0.145E+01 -.161E+01 0.353E+01
   0.919E+02 0.508E+02 -.355E+02   -.932E+02 -.524E+02 0.349E+02   0.147E+01 0.174E+01 0.647E+00
   -.919E+02 0.508E+02 0.355E+02   0.932E+02 -.523E+02 -.349E+02   -.147E+01 0.174E+01 -.647E+00
   0.103E+03 -.288E+02 -.581E+02   -.104E+03 0.292E+02 0.604E+02   0.117E+01 -.486E+00 -.242E+01
   -.103E+03 -.288E+02 0.581E+02   0.104E+03 0.292E+02 -.604E+02   -.117E+01 -.486E+00 0.242E+01
   -.469E+02 -.264E+02 0.764E+00   0.511E+02 0.300E+02 -.310E+00   -.419E+01 -.371E+01 -.457E+00
   0.469E+02 -.264E+02 -.763E+00   -.511E+02 0.300E+02 0.308E+00   0.419E+01 -.371E+01 0.457E+00
   -.363E+02 0.400E+02 0.978E+01   0.387E+02 -.449E+02 -.101E+02   -.232E+01 0.496E+01 0.335E+00
   0.363E+02 0.400E+02 -.979E+01   -.387E+02 -.449E+02 0.101E+02   0.232E+01 0.496E+01 -.335E+00
   0.112E+02 -.536E+02 0.823E+01   -.132E+02 0.587E+02 -.797E+01   0.192E+01 -.512E+01 -.271E+00
   -.112E+02 -.536E+02 -.823E+01   0.132E+02 0.587E+02 0.797E+01   -.192E+01 -.512E+01 0.271E+00
   -.290E+02 -.814E+00 0.394E+02   0.320E+02 0.301E+00 -.442E+02   -.301E+01 0.516E+00 0.479E+01
   0.290E+02 -.813E+00 -.394E+02   -.320E+02 0.300E+00 0.442E+02   0.301E+01 0.517E+00 -.479E+01
   0.647E+01 0.522E+02 -.145E+02   -.549E+01 -.575E+02 0.157E+02   -.982E+00 0.535E+01 -.120E+01
   -.647E+01 0.522E+02 0.145E+02   0.549E+01 -.575E+02 -.157E+02   0.982E+00 0.535E+01 0.120E+01
   0.551E+02 0.920E-01 -.406E+00   -.605E+02 0.369E+00 -.444E+00   0.548E+01 -.468E+00 0.850E+00
   -.551E+02 0.912E-01 0.405E+00   0.605E+02 0.370E+00 0.445E+00   -.548E+01 -.468E+00 -.850E+00
   0.270E+02 -.503E+02 -.142E+01   -.284E+02 0.554E+02 0.301E+00   0.147E+01 -.515E+01 0.112E+01
   -.270E+02 -.503E+02 0.142E+01   0.284E+02 0.554E+02 -.301E+00   -.147E+01 -.515E+01 -.112E+01
   0.341E+02 0.900E+01 -.415E+02   -.365E+02 -.104E+02 0.464E+02   0.240E+01 0.142E+01 -.494E+01
   -.341E+02 0.900E+01 0.415E+02   0.365E+02 -.104E+02 -.464E+02   -.240E+01 0.142E+01 0.494E+01
   -.105E+03 0.836E+01 -.203E+03   0.127E+03 -.930E+01 0.247E+03   -.223E+02 0.965E+00 -.441E+02
   0.105E+03 0.836E+01 0.203E+03   -.127E+03 -.930E+01 -.247E+03   0.223E+02 0.967E+00 0.441E+02
   0.593E+02 0.720E+02 0.198E+03   -.748E+02 -.916E+02 -.240E+03   0.156E+02 0.197E+02 0.425E+02
   -.593E+02 0.720E+02 -.198E+03   0.748E+02 -.916E+02 0.240E+03   -.156E+02 0.197E+02 -.425E+02
 -----------------------------------------------------------------------------------------------
   -.104E-02 -.340E+02 0.127E-02   -.853E-13 0.142E-13 -.114E-12   0.103E-02 0.340E+02 -.127E-02


 POSITION                                       TOTAL-FORCE (eV/Angst)
 -----------------------------------------------------------------------------------
      2.33943      1.04586      3.02756         0.020351     -0.002655      0.020440
      3.13887      4.15084      3.74174        -0.020646     -0.002675     -0.020876
      3.14138      1.05382      1.74136        -0.111863      0.031299     -0.040146
      2.33692      4.15884      5.02796         0.111886      0.031179      0.039808
      2.29868      1.33346      0.48877        -0.001403     -0.068885      0.099058
      3.17960      4.43849      6.28055         0.001548     -0.068984     -0.099031
      1.08332      0.43536      0.40806        -0.017265     -0.007559     -0.025988
      4.39496      3.54038      6.36128         0.017228     -0.007581      0.025725
      0.37650      0.15086      1.71908         0.075646      0.095009      0.025123
      5.10181      3.25588      5.05027        -0.075863      0.095072     -0.024899
      0.83730      1.05014      2.87842         0.032912     -0.067779     -0.087665
      4.64101      4.15513      3.89090        -0.032978     -0.067793      0.087309
      3.96089      1.78028      1.83684        -0.025353     -0.028354     -0.002432
      1.51741      4.88530      4.93246         0.025361     -0.028284      0.002404
      3.60389      0.05582      1.67215        -0.008651      0.023049      0.005109
      1.87439      3.16085      5.09717         0.008679      0.023029     -0.005094
      1.90932      2.36598      0.54620         0.006807     -0.052095     -0.005345
      3.56892      5.47102      6.22314        -0.006704     -0.052123      0.005333
      1.71477      1.23496      6.33619        -0.023652      0.004167      0.008483
      3.76351      4.33996      0.43313         0.023536      0.004213     -0.008509
      0.57545      5.30210      1.95712        -0.003403      0.038531     -0.012559
      4.90287      2.19711      4.81225         0.003417      0.038422      0.012463
      5.94595      0.24489      1.55324         0.033879     -0.006884     -0.000225
     -0.46765      3.34992      5.21611        -0.033767     -0.006871      0.000259
      0.55432      2.09483      2.65180         0.012710     -0.046968      0.004641
      4.92398      5.19983      4.11753        -0.012734     -0.046976     -0.004724
      0.37111      0.76905      3.83222         0.016884      0.014189     -0.014376
      5.10722      3.87403      2.93710        -0.017061      0.014299      0.014791
      2.89745      1.02711      4.12245        -0.050949      0.018864     -0.076481
      2.58086      4.13202      2.64683         0.051399      0.018992      0.077489
     -0.47541      6.15418      6.12126         0.038902      0.056018      0.070586
      5.95364      3.04916      0.64808        -0.038853      0.056133     -0.070673
 -----------------------------------------------------------------------------------
    total drift:                               -0.000008     -0.000015      0.000001


--------------------------------------------------------------------------------------------------------



  FREE ENERGIE OF THE ION-ELECTRON SYSTEM (eV)
  ---------------------------------------------------
  free  energy   TOTEN  =      -194.71224457 eV

  energy  without entropy=     -194.71224457  energy(sigma->0) =     -194.71224457



--------------------------------------------------------------------------------------------------------


    POTLOK:  cpu time      0.0290: real time      0.0290


--------------------------------------------------------------------------------------------------------


 stress matrix after NEB project (eV)
      0.00000      0.00000      0.00000
      0.00000      0.00000      0.00000
      0.00000      0.00000      0.00000
  FORCES: max atom, RMS     0.124153    0.075110
  FORCE total and by dimension    0.424885    0.111886
  Stress total and by dimension    0.000000    0.000000
 writing wavefunctions
     LOOP+:  cpu time     33.3393: real time     33.6613
    4ORBIT:  cpu time      0.0000: real time      0.0000

 total amount of memory used by VASP MPI-rank0    56883. kBytes
=======================================================================

   base      :      30000. kBytes
   nonl-proj :       4691. kBytes
   fftplans  :       1556. kBytes
   grid      :       2939. kBytes
   one-center:          3. kBytes
   wavefun   :      17694. kBytes

  
  
 General timing and accounting informations for this job:
 ========================================================
  
                  Total CPU time used (sec):       46.313
                            User time (sec):       43.486
                          System time (sec):        2.827
                         Elapsed time (sec):       49.941
  
                   Maximum memory used (kb):      226080.
                   Average memory used (kb):          N/A
  
                          Minor page faults:        26140
                          Major page faults:          663
                 Voluntary context switches:         3793
