 vasp.6.4.1 05Apr23 (build Jun  6 2023 14:36:51) complex                         
 executed on        HPECrayEX_GCC date 2024.08.20  14:20:07
 running  256 mpi-ranks, with    1 threads/rank, on    2 nodes
 distrk:  each k-point on  256 cores,    1 groups
 distr:  one band on NCORE=  64 cores,    4 groups


--------------------------------------------------------------------------------------------------------


 INCAR:
   ALGO = Conjugate
   NPAR = 4
   ISMEAR = 0
   SIGMA = 0.01
   PREC = Accurate
   EDIFF = 1E-7
   ENCUT = 1000
   ISIF = 0
   GGA = RE
   LUSE_VDW = .TRUE.
   AGGAC = 0.0000
   LASPH = .TRUE.
   LWAVE = .FALSE.
   LCHARGE = .FALSE.

 POTCAR:    PAW_PBE C_h 06Feb2004                 
 POTCAR:    PAW_PBE H_h 06Feb2004                 
 POTCAR:    PAW_PBE O_h 06Feb2004                 
 -----------------------------------------------------------------------------
|                                                                             |
|               ----> ADVICE to this user running VASP <----                  |
|                                                                             |
|     You have switched on vdW-DFT.                                           |
|     This routine was written and supplied by Jiri Klimes. We recommend      |
|     that you carefully read and cite the following publications:            |
|       J. Klimes, D.R. Bowler, A. Michelides                                 |
|          J. Phys.: Cond Matt. 22 022201 (2010)                              |
|       J. Klimes, D.R. Bowler, A. Michelides                                 |
|          Phys. Rev. B. 83, 195131 (2011)                                    |
|     and references therein.                                                 |
|                                                                             |
 -----------------------------------------------------------------------------

 POTCAR:    PAW_PBE C_h 06Feb2004                 
   VRHFIN =C: s2p2                                                                                  
   LEXCH  = PE                                                                                      
   EATOM  =   147.1560 eV,   10.8157 Ry                                                             
                                                                                                    
   TITEL  = PAW_PBE C_h 06Feb2004                                                                   
   LULTRA =        F    use ultrasoft PP ?                                                          
   IUNSCR =        1    unscreen: 0-lin 1-nonlin 2-no                                               
   RPACOR =    0.800    partial core radius                                                         
   POMASS =   12.011; ZVAL   =    4.000    mass and valenz                                          
   RCORE  =    1.100    outmost cutoff radius                                                       
   RWIGS  =    1.630; RWIGS  =    0.863    wigner-seitz radius (au A)                               
   ENMAX  =  700.000; ENMIN  =  500.000 eV                                                          
   ICORE  =        2    local potential                                                             
   LCOR   =        T    correct aug charges                                                         
   LPAW   =        T    paw PP                                                                      
   EAUG   =  946.768                                                                                
   DEXC   =    0.000                                                                                
   RMAX   =    1.128    core radius for proj-oper                                                   
   RAUG   =    1.300    factor for augmentation sphere                                              
   RDEP   =    1.162    radius for radial grids                                                     
   RDEPT  =    1.088    core radius for aug-charge                                                  
                                                                                                    
   Atomic configuration                                                                             
    4 entries                                                                                       
     n  l   j            E        occ.                                                              
     1  0  0.50      -273.3789   2.0000                                                             
     2  0  0.50       -13.7508   2.0000                                                             
     2  1  0.50        -5.2854   2.0000                                                             
     3  2  1.50        -5.4423   0.0000                                                             
   Description                                                                                      
     l       E           TYP  RCUT    TYP  RCUT                                                     
     0    -13.7508458     23  1.100                                                                 
     0     -8.2022199     23  1.100                                                                 
     1     -5.2854383     23  1.100                                                                 
     1      1.1560700     23  1.100                                                                 
     2     -5.4423304      7  1.100                                                                 
  local pseudopotential read in
  partial core-charges read in
  partial kinetic energy density read in
  atomic valenz-charges read in
  non local Contribution for L=           0  read in
    real space projection operators read in
  non local Contribution for L=           0  read in
    real space projection operators read in
  non local Contribution for L=           1  read in
    real space projection operators read in
  non local Contribution for L=           1  read in
    real space projection operators read in
    PAW grid and wavefunctions read in

   number of l-projection  operators is LMAX  =           4
   number of lm-projection operators is LMMAX =           8

 POTCAR:    PAW_PBE H_h 06Feb2004                 
   VRHFIN =H: ultrasoft test                                                                        
   LEXCH  = PE                                                                                      
   EATOM  =    12.4884 eV,    0.9179 Ry                                                             
                                                                                                    
   TITEL  = PAW_PBE H_h 06Feb2004                                                                   
   LULTRA =        F    use ultrasoft PP ?                                                          
   IUNSCR =        0    unscreen: 0-lin 1-nonlin 2-no                                               
   RPACOR =    0.000    partial core radius                                                         
   POMASS =    1.000; ZVAL   =    1.000    mass and valenz                                          
   RCORE  =    0.800    outmost cutoff radius                                                       
   RWIGS  =    0.700; RWIGS  =    0.370    wigner-seitz radius (au A)                               
   ENMAX  =  700.000; ENMIN  =  350.000 eV                                                          
   RCLOC  =    0.701    cutoff for local pot                                                        
   LCOR   =        T    correct aug charges                                                         
   LPAW   =        T    paw PP                                                                      
   EAUG   = 1000.000                                                                                
   RMAX   =    0.819    core radius for proj-oper                                                   
   RAUG   =    1.000    factor for augmentation sphere                                              
   RDEP   =    0.817    radius for radial grids                                                     
   RDEPT  =    0.817    core radius for aug-charge                                                  
                                                                                                    
   Atomic configuration                                                                             
    2 entries                                                                                       
     n  l   j            E        occ.                                                              
     1  0  0.50        -6.4927   1.0000                                                             
     2  1  0.50        -3.4015   0.0000                                                             
   Description                                                                                      
     l       E           TYP  RCUT    TYP  RCUT                                                     
     0     -6.4927493     23  0.800                                                                 
     0      6.8029130     23  0.800                                                                 
     1     -6.8029130     23  0.800                                                                 
  local pseudopotential read in
  atomic valenz-charges read in
  non local Contribution for L=           0  read in
    real space projection operators read in
  non local Contribution for L=           0  read in
    real space projection operators read in
  non local Contribution for L=           1  read in
    real space projection operators read in
    PAW grid and wavefunctions read in

   number of l-projection  operators is LMAX  =           3
   number of lm-projection operators is LMMAX =           5

 POTCAR:    PAW_PBE O_h 06Feb2004                 
   VRHFIN =O: s2p4                                                                                  
   LEXCH  = PE                                                                                      
   EATOM  =   432.3788 eV,   31.7789 Ry                                                             
                                                                                                    
   TITEL  = PAW_PBE O_h 06Feb2004                                                                   
   LULTRA =        F    use ultrasoft PP ?                                                          
   IUNSCR =        1    unscreen: 0-lin 1-nonlin 2-no                                               
   RPACOR =    0.800    partial core radius                                                         
   POMASS =   16.000; ZVAL   =    6.000    mass and valenz                                          
   RCORE  =    1.100    outmost cutoff radius                                                       
   RWIGS  =    1.400; RWIGS  =    0.741    wigner-seitz radius (au A)                               
   ENMAX  =  700.000; ENMIN  =  500.000 eV                                                          
   ICORE  =        2    local potential                                                             
   LCOR   =        T    correct aug charges                                                         
   LPAW   =        T    paw PP                                                                      
   EAUG   =  888.804                                                                                
   DEXC   =    0.000                                                                                
   RMAX   =    1.128    core radius for proj-oper                                                   
   RAUG   =    1.300    factor for augmentation sphere                                              
   RDEP   =    1.125    radius for radial grids                                                     
   RDEPT  =    1.088    core radius for aug-charge                                                  
                                                                                                    
   Atomic configuration                                                                             
    4 entries                                                                                       
     n  l   j            E        occ.                                                              
     1  0  0.50      -514.6923   2.0000                                                             
     2  0  0.50       -23.9615   2.0000                                                             
     2  1  0.50        -9.0305   4.0000                                                             
     3  2  1.50        -9.5241   0.0000                                                             
   Description                                                                                      
     l       E           TYP  RCUT    TYP  RCUT                                                     
     0    -23.9615319     23  1.100                                                                 
     0    -25.3221145     23  1.100                                                                 
     1     -9.0304911     23  1.100                                                                 
     1     -5.4802209     23  1.100                                                                 
     2     -9.5240782      7  1.100                                                                 
  local pseudopotential read in
  partial core-charges read in
  partial kinetic energy density read in
  atomic valenz-charges read in
  non local Contribution for L=           0  read in
    real space projection operators read in
  non local Contribution for L=           0  read in
    real space projection operators read in
  non local Contribution for L=           1  read in
    real space projection operators read in
  non local Contribution for L=           1  read in
    real space projection operators read in
    PAW grid and wavefunctions read in

   number of l-projection  operators is LMAX  =           4
   number of lm-projection operators is LMMAX =           8

 -----------------------------------------------------------------------------
|                                                                             |
|               ----> ADVICE to this user running VASP <----                  |
|                                                                             |
|     You have a (more or less) 'large supercell' and for larger cells it     |
|     might be more efficient to use real-space projection operators.         |
|     Therefore, try LREAL= Auto in the INCAR file.                           |
|     Mind: For very accurate calculation, you might also keep the            |
|     reciprocal projection scheme (i.e. LREAL=.FALSE.).                      |
|                                                                             |
 -----------------------------------------------------------------------------

 -----------------------------------------------------------------------------
|                                                                             |
|               ----> ADVICE to this user running VASP <----                  |
|                                                                             |
|     You enforced a specific xc type in the INCAR file but a different       |
|     type was found in the POTCAR file.                                      |
|     I HOPE YOU KNOW WHAT YOU ARE DOING!                                     |
|                                                                             |
 -----------------------------------------------------------------------------

  PAW_PBE C_h 06Feb2004                 :
 energy of atom  1       EATOM= -147.1560
 kinetic energy error for atom=    0.0031 (will be added to EATOM!!)
  PAW_PBE H_h 06Feb2004                 :
 energy of atom  2       EATOM=  -12.4884
 kinetic energy error for atom=    0.0006 (will be added to EATOM!!)
  PAW_PBE O_h 06Feb2004                 :
 energy of atom  3       EATOM= -432.3788
 kinetic energy error for atom=    0.0171 (will be added to EATOM!!)


 POSCAR:  C  H  O
  positions in cartesian coordinates
  No initial velocities read in
 exchange correlation table for  LEXCH =       40
   RHO(1)=    0.500       N(1)  =     2000
   RHO(2)=  100.500       N(2)  =     4000

 VTST: version 4.1, (05/19/21)

 CHAIN: initializing optimizer
 
 OPT: Using VASP Dynamics algorithm
 CHAIN: Read ICHAIN            0

 POSCAR:  C  H  O
  positions in cartesian coordinates
  No initial velocities read in



--------------------------------------------------------------------------------------------------------


 ion  position               nearest neighbor table
   1  0.431  0.168  0.447-  29 1.23  11 1.51   3 1.52
   2  0.569  0.668  0.553-  30 1.23  12 1.51   4 1.52
   3  0.518  0.170  0.257-  13 1.10  15 1.10   1 1.52   5 1.54
   4  0.482  0.670  0.743-  14 1.10  16 1.10   2 1.52   6 1.54
   5  0.358  0.215  0.072-  19 1.10  17 1.10   7 1.51   3 1.54
   6  0.642  0.715  0.928-  20 1.10  18 1.10   8 1.51   4 1.54
   7  0.174  0.070  0.060-  31 1.23   5 1.51   9 1.52
   8  0.826  0.570  0.940-  32 1.23   6 1.51  10 1.52
   9  0.101  0.024  0.254-  23 1.10  21 1.10   7 1.52  11 1.54
  10  0.899  0.524  0.746-  24 1.10  22 1.10   8 1.52  12 1.54
  11  0.201  0.169  0.425-  27 1.10  25 1.11   1 1.51   9 1.54
  12  0.799  0.669  0.575-  28 1.10  26 1.11   2 1.51  10 1.54
  13  0.643  0.287  0.271-   3 1.10
  14  0.357  0.787  0.729-   4 1.10
  15  0.585  0.009  0.247-   3 1.10
  16  0.415  0.509  0.753-   4 1.10
  17  0.301  0.381  0.081-   5 1.10
  18  0.699  0.881  0.919-   6 1.10
  19  0.423  0.199  0.936-   5 1.10
  20  0.577  0.699  0.064-   6 1.10
  21  0.137  0.854  0.289-   9 1.10
  22  0.863  0.354  0.711-  10 1.10
  23  0.935  0.039  0.229-   9 1.10
  24  0.065  0.539  0.771-  10 1.10
  25  0.152  0.337  0.392-  11 1.11
  26  0.848  0.837  0.608-  12 1.11
  27  0.156  0.124  0.566-  11 1.10
  28  0.844  0.624  0.434-  12 1.10
  29  0.543  0.165  0.609-   1 1.23
  30  0.457  0.665  0.391-   2 1.23
  31  0.088  0.991  0.904-   7 1.23
  32  0.912  0.491  0.096-   8 1.23

  LATTYP: Found a simple monoclinic cell.
 ALAT       =     6.6500000000
 B/A-ratio  =     0.9338345865
 C/A-ratio  =     1.0330821040
 COS(beta)  =    -0.1705532291
  
  Lattice vectors:
  
 A1 = (   6.6500000000,   0.0000000000,   0.0000000000)
 A2 = (   0.0000000000,   6.2100000000,   0.0000000000)
 A3 = (  -1.1717000000,   0.0000000000,   6.7693400000)


Analysis of symmetry for initial positions (statically):
=====================================================================
 Subroutine PRICEL returns:
 Original cell was already a primitive cell.
 

 Routine SETGRP: Setting up the symmetry group for a 
 simple monoclinic supercell.


 Subroutine GETGRP returns: Found  1 space group operations
 (whereof  1 operations were pure point group operations)
 out of a pool of  4 trial point group operations.


The static configuration has the point symmetry C_1 .


Analysis of symmetry for dynamics (positions and initial velocities):
=====================================================================
 Subroutine PRICEL returns:
 Original cell was already a primitive cell.
 

 Routine SETGRP: Setting up the symmetry group for a 
 simple monoclinic supercell.


 Subroutine GETGRP returns: Found  1 space group operations
 (whereof  1 operations were pure point group operations)
 out of a pool of  4 trial point group operations.


The dynamic configuration has the point symmetry C_1 .


 Subroutine INISYM returns: Found  1 space group operations
 (whereof  1 operations are pure point group operations),
 and found     1 'primitive' translations


----------------------------------------------------------------------------------------

                                     Primitive cell                                     

  volume of cell :     279.5500

  direct lattice vectors                    reciprocal lattice vectors
     6.650000000  0.000000000  0.000000000     0.150375940 -0.000000000  0.026028459
     0.000000000  6.210000000  0.000000000     0.000000000  0.161030596 -0.000000000
    -1.171700000  0.000000000  6.769340000     0.000000000  0.000000000  0.147724889

  length of vectors
     6.650000000  6.210000000  6.869995992     0.152611939  0.161030596  0.147724889

  position of ions in fractional coordinates (direct lattice)
     0.430596934  0.168415645  0.447246499
     0.569402684  0.668411586  0.552747901
     0.517712700  0.169696514  0.257241761
     0.482285808  0.669699730  0.742754295
     0.358387813  0.214728312  0.072203657
     0.641608337  0.714732745  0.927793743
     0.173527056  0.070106752  0.060279888
     0.826469951  0.570110222  0.939720112
     0.101361308  0.024293230  0.253950463
     0.898639441  0.524295920  0.746049862
     0.200830755  0.169104039  0.425214823
     0.799170228  0.669102809  0.574782411
     0.643432873  0.286679458  0.271346732
     0.356565504  0.786682473  0.728646812
     0.585462031  0.008989135  0.247017566
     0.414534072  0.508993625  0.752979240
     0.301332952  0.380995791  0.080687977
     0.698658800  0.881002061  0.919312169
     0.422781436  0.198866956  0.936013107
     0.577215320  0.698865900  0.063984030
     0.137474218  0.853800507  0.289115351
     0.862528711  0.353802491  0.710889771
     0.934555520  0.039434101  0.229452206
     0.065444480  0.539439265  0.770549094
     0.152378381  0.337332307  0.391736502
     0.847620959  0.837331508  0.608262147
     0.155552501  0.123839817  0.566113583
     0.844451209  0.623837803  0.433882794
     0.543007233  0.165396602  0.608989152
     0.456992138  0.665382227  0.391003054
     0.087836692  0.991010865  0.904262631
     0.912153244  0.491007815  0.095737149

  ion indices of the primitive-cell ions
   primitive index   ion index
                 1           1
                 2           2
                 3           3
                 4           4
                 5           5
                 6           6
                 7           7
                 8           8
                 9           9
                10          10
                11          11
                12          12
                13          13
                14          14
                15          15
                16          16
                17          17
                18          18
                19          19
                20          20
                21          21
                22          22
                23          23
                24          24
                25          25
                26          26
                27          27
                28          28
                29          29
                30          30
                31          31
                32          32

----------------------------------------------------------------------------------------



 KPOINTS: auto                                    

Automatic generation of k-mesh.
 Grid dimensions read from file:
 generate k-points for:    4    4    4

 Generating k-lattice:

  Cartesian coordinates                     Fractional coordinates (reciprocal lattice)
     0.037593985 -0.000000000  0.006507115     0.250000000  0.000000000 -0.000000000
     0.000000000  0.040257649 -0.000000000     0.000000000  0.250000000  0.000000000
     0.000000000  0.000000000  0.036931222     0.000000000  0.000000000  0.250000000

  Length of vectors
     0.038152985  0.040257649  0.036931222

  Shift w.r.t. Gamma in fractional coordinates (k-lattice)
     0.000000000  0.000000000  0.000000000

 
 Subroutine IBZKPT returns following result:
 ===========================================
 
 Found     36 irreducible k-points:
 
 Following reciprocal coordinates:
            Coordinates               Weight
  0.000000  0.000000  0.000000      1.000000
  0.250000  0.000000  0.000000      2.000000
  0.500000  0.000000  0.000000      1.000000
  0.000000  0.250000  0.000000      2.000000
  0.250000  0.250000  0.000000      2.000000
 -0.250000  0.250000  0.000000      2.000000
  0.500000  0.250000  0.000000      2.000000
  0.000000  0.500000  0.000000      1.000000
  0.250000  0.500000  0.000000      2.000000
  0.500000  0.500000  0.000000      1.000000
  0.000000  0.000000  0.250000      2.000000
  0.250000  0.000000  0.250000      2.000000
  0.500000  0.000000  0.250000      2.000000
 -0.250000  0.000000  0.250000      2.000000
  0.000000  0.250000  0.250000      2.000000
  0.000000  0.250000 -0.250000      2.000000
  0.250000  0.250000  0.250000      2.000000
 -0.250000  0.250000 -0.250000      2.000000
  0.500000  0.250000  0.250000      2.000000
  0.500000  0.250000 -0.250000      2.000000
 -0.250000  0.250000  0.250000      2.000000
  0.250000  0.250000 -0.250000      2.000000
  0.000000  0.500000  0.250000      2.000000
  0.250000  0.500000  0.250000      2.000000
  0.500000  0.500000  0.250000      2.000000
 -0.250000  0.500000  0.250000      2.000000
  0.000000  0.000000  0.500000      1.000000
  0.250000  0.000000  0.500000      2.000000
  0.500000  0.000000  0.500000      1.000000
  0.000000  0.250000  0.500000      2.000000
  0.250000  0.250000  0.500000      2.000000
 -0.250000  0.250000  0.500000      2.000000
  0.500000  0.250000  0.500000      2.000000
  0.000000  0.500000  0.500000      1.000000
  0.250000  0.500000  0.500000      2.000000
  0.500000  0.500000  0.500000      1.000000
 
 Following cartesian coordinates:
            Coordinates               Weight
  0.000000  0.000000  0.000000      1.000000
  0.037594  0.000000  0.006507      2.000000
  0.075188  0.000000  0.013014      1.000000
  0.000000  0.040258  0.000000      2.000000
  0.037594  0.040258  0.006507      2.000000
 -0.037594  0.040258 -0.006507      2.000000
  0.075188  0.040258  0.013014      2.000000
  0.000000  0.080515  0.000000      1.000000
  0.037594  0.080515  0.006507      2.000000
  0.075188  0.080515  0.013014      1.000000
  0.000000  0.000000  0.036931      2.000000
  0.037594  0.000000  0.043438      2.000000
  0.075188  0.000000  0.049945      2.000000
 -0.037594  0.000000  0.030424      2.000000
  0.000000  0.040258  0.036931      2.000000
  0.000000  0.040258 -0.036931      2.000000
  0.037594  0.040258  0.043438      2.000000
 -0.037594  0.040258 -0.043438      2.000000
  0.075188  0.040258  0.049945      2.000000
  0.075188  0.040258 -0.023917      2.000000
 -0.037594  0.040258  0.030424      2.000000
  0.037594  0.040258 -0.030424      2.000000
  0.000000  0.080515  0.036931      2.000000
  0.037594  0.080515  0.043438      2.000000
  0.075188  0.080515  0.049945      2.000000
 -0.037594  0.080515  0.030424      2.000000
  0.000000  0.000000  0.073862      1.000000
  0.037594  0.000000  0.080370      2.000000
  0.075188  0.000000  0.086877      1.000000
  0.000000  0.040258  0.073862      2.000000
  0.037594  0.040258  0.080370      2.000000
 -0.037594  0.040258  0.067355      2.000000
  0.075188  0.040258  0.086877      2.000000
  0.000000  0.080515  0.073862      1.000000
  0.037594  0.080515  0.080370      2.000000
  0.075188  0.080515  0.086877      1.000000
 


--------------------------------------------------------------------------------------------------------




 Dimension of arrays:
   k-points           NKPTS =     36   k-points in BZ     NKDIM =     36   number of bands    NBANDS=     64
   number of dos      NEDOS =    301   number of ions     NIONS =     32
   non local maximal  LDIM  =      4   non local SUM 2l+1 LMDIM =      8
   total plane-waves  NPLWV = 322560
   max r-space proj   IRMAX =      1   max aug-charges    IRDMAX=   8614
   dimension x,y,z NGX =    70 NGY =   64 NGZ =   72
   dimension x,y,z NGXF=   140 NGYF=  128 NGZF=  144
   support grid    NGXF=   140 NGYF=  128 NGZF=  144
   ions per type =              12  16   4
   NGX,Y,Z   is equivalent  to a cutoff of  17.50, 17.13, 17.42 a.u.
   NGXF,Y,Z  is equivalent  to a cutoff of  35.00, 34.27, 34.85 a.u.

 SYSTEM =  unknown system                          
 POSCAR =   C  H  O                                

 Startparameter for this run:
   NWRITE =      2    write-flag & timer
   PREC   = accura    normal or accurate (medium, high low for compatibility)
   ISTART =      0    job   : 0-new  1-cont  2-samecut
   ICHARG =      2    charge: 1-file 2-atom 10-const
   ISPIN  =      1    spin polarized calculation?
   LNONCOLLINEAR =      F non collinear calculations
   LSORBIT =      F    spin-orbit coupling
   INIWAV =      1    electr: 0-lowe 1-rand  2-diag
   LASPH  =      T    aspherical Exc in radial PAW
 Electronic Relaxation 1
   ENCUT  = 1000.0 eV  73.50 Ry    8.57 a.u.  17.15 16.01 17.71*2*pi/ulx,y,z
   ENINI  = 1000.0     initial cutoff
   ENAUG  = 1000.0 eV  augmentation charge cutoff
   NELM   =     60;   NELMIN=  2; NELMDL= -5     # of ELM steps 
   EDIFF  = 0.1E-06   stopping-criterion for ELM
   LREAL  =      F    real-space projection
   NLSPLINE    = F    spline interpolate recip. space projectors
   LCOMPAT=      F    compatible to vasp.4.4
   GGA_COMPAT  = T    GGA compatible to vasp.4.4-vasp.4.6
   LMAXPAW     = -100 max onsite density
   LMAXMIX     =    2 max onsite mixed and CHGCAR
   VOSKOWN=      0    Vosko Wilk Nusair interpolation
   ROPT   =    0.00000   0.00000   0.00000
 Ionic relaxation
   EDIFFG = 0.1E-05   stopping-criterion for IOM
   NSW    =      0    number of steps for IOM
   NBLOCK =      1;   KBLOCK =      1    inner block; outer block 
   IBRION =     -1    ionic relax: 0-MD 1-quasi-New 2-CG
   NFREE  =      0    steps in history (QN), initial steepest desc. (CG)
   ISIF   =      0    stress and relaxation
   IWAVPR =     10    prediction:  0-non 1-charg 2-wave 3-comb
   ISYM   =      2    0-nonsym 1-usesym 2-fastsym
   LCORR  =      T    Harris-Foulkes like correction to forces

   POTIM  = 0.5000    time-step for ionic-motion
   TEIN   =    0.0    initial temperature
   TEBEG  =    0.0;   TEEND  =   0.0 temperature during run
   SMASS  =  -3.00    Nose mass-parameter (am)
   estimated Nose-frequenzy (Omega)   =  0.10E-29 period in steps = 0.13E+47 mass=  -0.101E-26a.u.
   SCALEE = 1.0000    scale energy and forces
   NPACO  =    256;   APACO  = 10.0  distance and # of slots for P.C.
   PSTRESS=    0.0 pullay stress

  Mass of Ions in am
   POMASS =  12.01  1.00 16.00
  Ionic Valenz
   ZVAL   =   4.00  1.00  6.00
  Atomic Wigner-Seitz radii
   RWIGS  =  -1.00 -1.00 -1.00
  virtual crystal weights 
   VCA    =   1.00  1.00  1.00
   NELECT =      88.0000    total number of electrons
   NUPDOWN=      -1.0000    fix difference up-down

 DOS related values:
   EMIN   =  10.00;   EMAX   =-10.00  energy-range for DOS
   EFERMI =   0.00;   METHOD = LEGACY      
   ISMEAR =     0;   SIGMA  =   0.01  broadening in eV -4-tet -1-fermi 0-gaus

 Electronic relaxation 2 (details)
   IALGO  =     58    algorithm
   LDIAG  =      T    sub-space diagonalisation (order eigenvalues)
   LSUBROT=      F    optimize rotation matrix (better conditioning)
   TURBO    =      0    0=normal 1=particle mesh
   IRESTART =      0    0=no restart 2=restart with 2 vectors
   NREBOOT  =      0    no. of reboots
   NMIN     =      0    reboot dimension
   EREF     =   0.00    reference energy to select bands
   IMIX   =      4    mixing-type and parameters
     AMIX     =   0.40;   BMIX     =  1.00
     AMIX_MAG =   1.60;   BMIX_MAG =  1.00
     AMIN     =   0.10
     WC   =   100.;   INIMIX=   1;  MIXPRE=   1;  MAXMIX= -45

 Intra band minimization:
   WEIMIN = 0.0000     energy-eigenvalue tresh-hold
   EBREAK =  0.39E-09  absolut break condition
   DEPER  =   0.30     relativ break condition  

   TIME   =   0.40     timestep for ELM

  volume/ion in A,a.u.               =       8.74        58.95
  Fermi-wavevector in a.u.,A,eV,Ry     =   1.113651  2.104496 16.874204  1.240219
  Thomas-Fermi vector in A             =   2.250238

 Write flags
   LWAVE        =      F    write WAVECAR
   LDOWNSAMPLE  =      F    k-point downsampling of WAVECAR
   LCHARG       =      T    write CHGCAR
   LVTOT        =      F    write LOCPOT, total local potential
   LVHAR        =      F    write LOCPOT, Hartree potential only
   LELF         =      F    write electronic localiz. function (ELF)
   LORBIT       =      0    0 simple, 1 ext, 2 COOP (PROOUT), +10 PAW based schemes


 Dipole corrections
   LMONO  =      F    monopole corrections only (constant potential shift)
   LDIPOL =      F    correct potential (dipole corrections)
   IDIPOL =      0    1-x, 2-y, 3-z, 4-all directions 
   EPSILON=  1.0000000 bulk dielectric constant

 Exchange correlation treatment:
   GGA     =    RE    GGA type
   LEXCH   =    40    internal setting for exchange type
   LIBXC   =     F    Libxc                    
   VOSKOWN =     0    Vosko Wilk Nusair interpolation
   LHFCALC =     F    Hartree Fock is set to
   LHFONE  =     F    Hartree Fock one center treatment
   AEXX    =    0.0000 exact exchange contribution

 vdW DFT:
   LUSE_VDW   =     T    switch on vdW DFT
   IVDW_NL    =     1    kernel type
   LSPIN_VDW  =     F    use spin-polarized vdW DFT
   Zab_VDW    =-.8491    correlation parameter
   PARAM1     =0.1234
   PARAM2     =1.0000
   PARAM3     =0.0000
   -- rVV10 --
   BPARAM     = 6.3000
   CPARAM     = 0.0093

 Linear response parameters
   LEPSILON=     F    determine dielectric tensor
   LRPA    =     F    only Hartree local field effects (RPA)
   LNABLA  =     F    use nabla operator in PAW spheres
   LVEL    =     F    velocity operator in full k-point grid
   CSHIFT  =0.1000    complex shift for real part using Kramers Kronig
   OMEGAMAX=  -1.0    maximum frequency
   DEG_THRESHOLD= 0.2000000E-02 threshold for treating states as degnerate
   RTIME   =   -0.100 relaxation time in fs
  (WPLASMAI=    0.000 imaginary part of plasma frequency in eV, 0.658/RTIME)
   DFIELD  = 0.0000000 0.0000000 0.0000000 field for delta impulse in time

  Optional k-point grid parameters
   LKPOINTS_OPT  =     F    use optional k-point grid
   KPOINTS_OPT_MODE=     1    mode for optional k-point grid

 Orbital magnetization related:
   ORBITALMAG=     F  switch on orbital magnetization
   LCHIMAG   =     F  perturbation theory with respect to B field
   DQ        =  0.001000  dq finite difference perturbation B field
   LLRAUG    =     F  two centre corrections for induced B field
   LBONE     =     F  B-component reconstruction in AE one-centre
   LVGVCALC  =     T  calculate vGv susceptibility
   LVGVAPPL  =     F  apply vGv susceptibility instead of pGv for G=0

 Random number generation:
   RANDOM_GENERATOR = DEFAULT
   PCG_SEED         = not used


--------------------------------------------------------------------------------------------------------


 Static calculation
 charge density and potential will be updated during run
 non-spin polarized calculation
 Conjugate gradient for all bands (Freysoldt, et al. PRB 79, 241103 (2009))
 preconditioned conjugated gradient                                        
 perform sub-space diagonalisation
    before iterative eigenvector-optimisation
 modified Broyden-mixing scheme, WC =      100.0
 initial mixing is a Kerker type mixing with AMIX =  0.4000 and BMIX =      1.0000
 Hartree-type preconditioning will be used
 using additional bands           20
 reciprocal scheme for non local part
 use partial core corrections
 no Harris-corrections to forces 
 use gradient corrections 
 use of overlap-Matrix (Vanderbilt PP)
 Gauss-broadening in eV      SIGMA  =   0.01


--------------------------------------------------------------------------------------------------------


  energy-cutoff  :     1000.00
  volume of cell :      279.55
      direct lattice vectors                 reciprocal lattice vectors
     6.650000000  0.000000000  0.000000000     0.150375940 -0.000000000  0.026028459
     0.000000000  6.210000000  0.000000000     0.000000000  0.161030596 -0.000000000
    -1.171700000  0.000000000  6.769340000     0.000000000  0.000000000  0.147724889

  length of vectors
     6.650000000  6.210000000  6.869995992     0.152611939  0.161030596  0.147724889



 k-points in units of 2pi/SCALE and weight: auto                                    
   0.00000000  0.00000000  0.00000000       0.016
   0.03759398  0.00000000  0.00650711       0.031
   0.07518797  0.00000000  0.01301423       0.016
   0.00000000  0.04025765  0.00000000       0.031
   0.03759398  0.04025765  0.00650711       0.031
  -0.03759398  0.04025765 -0.00650711       0.031
   0.07518797  0.04025765  0.01301423       0.031
   0.00000000  0.08051530  0.00000000       0.016
   0.03759398  0.08051530  0.00650711       0.031
   0.07518797  0.08051530  0.01301423       0.016
   0.00000000  0.00000000  0.03693122       0.031
   0.03759398  0.00000000  0.04343834       0.031
   0.07518797  0.00000000  0.04994545       0.031
  -0.03759398  0.00000000  0.03042411       0.031
   0.00000000  0.04025765  0.03693122       0.031
   0.00000000  0.04025765 -0.03693122       0.031
   0.03759398  0.04025765  0.04343834       0.031
  -0.03759398  0.04025765 -0.04343834       0.031
   0.07518797  0.04025765  0.04994545       0.031
   0.07518797  0.04025765 -0.02391699       0.031
  -0.03759398  0.04025765  0.03042411       0.031
   0.03759398  0.04025765 -0.03042411       0.031
   0.00000000  0.08051530  0.03693122       0.031
   0.03759398  0.08051530  0.04343834       0.031
   0.07518797  0.08051530  0.04994545       0.031
  -0.03759398  0.08051530  0.03042411       0.031
   0.00000000  0.00000000  0.07386244       0.016
   0.03759398  0.00000000  0.08036956       0.031
   0.07518797  0.00000000  0.08687667       0.016
   0.00000000  0.04025765  0.07386244       0.031
   0.03759398  0.04025765  0.08036956       0.031
  -0.03759398  0.04025765  0.06735533       0.031
   0.07518797  0.04025765  0.08687667       0.031
   0.00000000  0.08051530  0.07386244       0.016
   0.03759398  0.08051530  0.08036956       0.031
   0.07518797  0.08051530  0.08687667       0.016

 k-points in reciprocal lattice and weights: auto                                    
   0.00000000  0.00000000  0.00000000       0.016
   0.25000000  0.00000000  0.00000000       0.031
   0.50000000  0.00000000  0.00000000       0.016
   0.00000000  0.25000000  0.00000000       0.031
   0.25000000  0.25000000  0.00000000       0.031
  -0.25000000  0.25000000  0.00000000       0.031
   0.50000000  0.25000000  0.00000000       0.031
   0.00000000  0.50000000  0.00000000       0.016
   0.25000000  0.50000000  0.00000000       0.031
   0.50000000  0.50000000  0.00000000       0.016
   0.00000000  0.00000000  0.25000000       0.031
   0.25000000  0.00000000  0.25000000       0.031
   0.50000000  0.00000000  0.25000000       0.031
  -0.25000000  0.00000000  0.25000000       0.031
   0.00000000  0.25000000  0.25000000       0.031
   0.00000000  0.25000000 -0.25000000       0.031
   0.25000000  0.25000000  0.25000000       0.031
  -0.25000000  0.25000000 -0.25000000       0.031
   0.50000000  0.25000000  0.25000000       0.031
   0.50000000  0.25000000 -0.25000000       0.031
  -0.25000000  0.25000000  0.25000000       0.031
   0.25000000  0.25000000 -0.25000000       0.031
   0.00000000  0.50000000  0.25000000       0.031
   0.25000000  0.50000000  0.25000000       0.031
   0.50000000  0.50000000  0.25000000       0.031
  -0.25000000  0.50000000  0.25000000       0.031
   0.00000000  0.00000000  0.50000000       0.016
   0.25000000  0.00000000  0.50000000       0.031
   0.50000000  0.00000000  0.50000000       0.016
   0.00000000  0.25000000  0.50000000       0.031
   0.25000000  0.25000000  0.50000000       0.031
  -0.25000000  0.25000000  0.50000000       0.031
   0.50000000  0.25000000  0.50000000       0.031
   0.00000000  0.50000000  0.50000000       0.016
   0.25000000  0.50000000  0.50000000       0.031
   0.50000000  0.50000000  0.50000000       0.016

 position of ions in fractional coordinates (direct lattice) 
   0.43059693  0.16841564  0.44724650
   0.56940268  0.66841159  0.55274790
   0.51771270  0.16969651  0.25724176
   0.48228581  0.66969973  0.74275429
   0.35838781  0.21472831  0.07220366
   0.64160834  0.71473275  0.92779374
   0.17352706  0.07010675  0.06027989
   0.82646995  0.57011022  0.93972011
   0.10136131  0.02429323  0.25395046
   0.89863944  0.52429592  0.74604986
   0.20083075  0.16910404  0.42521482
   0.79917023  0.66910281  0.57478241
   0.64343287  0.28667946  0.27134673
   0.35656550  0.78668247  0.72864681
   0.58546203  0.00898913  0.24701757
   0.41453407  0.50899363  0.75297924
   0.30133295  0.38099579  0.08068798
   0.69865880  0.88100206  0.91931217
   0.42278144  0.19886696  0.93601311
   0.57721532  0.69886590  0.06398403
   0.13747422  0.85380051  0.28911535
   0.86252871  0.35380249  0.71088977
   0.93455552  0.03943410  0.22945221
   0.06544448  0.53943927  0.77054909
   0.15237838  0.33733231  0.39173650
   0.84762096  0.83733151  0.60826215
   0.15555250  0.12383982  0.56611358
   0.84445121  0.62383780  0.43388279
   0.54300723  0.16539660  0.60898915
   0.45699214  0.66538223  0.39100305
   0.08783669  0.99101087  0.90426263
   0.91215324  0.49100782  0.09573715

 position of ions in cartesian coordinates  (Angst):
   2.33943089  1.04586116  3.02756362
   3.13887313  4.15083595  3.74173847
   3.14137928  1.05381535  1.74135694
   2.33691542  4.15883532  5.02795636
   2.29867793  1.33346282  0.48877110
   3.17959951  4.43849035  6.28055129
   1.08332498  0.43536293  0.40805506
   4.39495512  3.54038448  6.36128494
   0.37649894  0.15086096  1.71907703
   5.10180566  3.25587766  5.05026518
   0.83730031  1.05013608  2.87842371
   4.64100946  4.15512845  3.89089757
   3.96089164  1.78027943  1.83683828
   1.51740513  4.88529816  4.93245801
   3.60389202  0.05582253  1.67214589
   1.87438580  3.16085041  5.09717249
   1.90932203  2.36598386  0.54620435
   3.56892295  5.47102280  6.22313664
   1.71476999  1.23496380  6.33619097
   3.76351179  4.33995724  0.43312965
   0.57544710  5.30210115  1.95712011
   4.90286638  2.19711347  4.81225456
   5.94594506  0.24488577  1.55324000
  -0.46764658  3.34991784  5.21610880
   0.55431857  2.09483363  2.65179757
   4.92397862  5.19982866  4.11753328
   0.37110885  0.76904526  3.83221532
   5.10722007  3.87403276  2.93710016
   2.89744551  1.02711290  4.12245462
   2.58085944  4.13202363  2.64683262
  -0.47541052  6.15417747  6.12126120
   5.95364385  3.04915853  0.64807731



--------------------------------------------------------------------------------------------------------


 k-point   1 :   0.0000 0.0000 0.0000  plane waves:   20055
 k-point   2 :   0.2500 0.0000 0.0000  plane waves:   20080
 k-point   3 :   0.5000 0.0000 0.0000  plane waves:   20022
 k-point   4 :   0.0000 0.2500 0.0000  plane waves:   20078
 k-point   5 :   0.2500 0.2500 0.0000  plane waves:   20073
 k-point   6 :  -0.2500 0.2500 0.0000  plane waves:   20073
 k-point   7 :   0.5000 0.2500 0.0000  plane waves:   20092
 k-point   8 :   0.0000 0.5000 0.0000  plane waves:   20108
 k-point   9 :   0.2500 0.5000 0.0000  plane waves:   20100
 k-point  10 :   0.5000 0.5000 0.0000  plane waves:   20112
 k-point  11 :   0.0000 0.0000 0.2500  plane waves:   20054
 k-point  12 :   0.2500 0.0000 0.2500  plane waves:   20057
 k-point  13 :   0.5000 0.0000 0.2500  plane waves:   20056
 k-point  14 :  -0.2500 0.0000 0.2500  plane waves:   20077
 k-point  15 :   0.0000 0.2500 0.2500  plane waves:   20068
 k-point  16 :   0.0000 0.2500-0.2500  plane waves:   20068
 k-point  17 :   0.2500 0.2500 0.2500  plane waves:   20069
 k-point  18 :  -0.2500 0.2500-0.2500  plane waves:   20069
 k-point  19 :   0.5000 0.2500 0.2500  plane waves:   20092
 k-point  20 :   0.5000 0.2500-0.2500  plane waves:   20092
 k-point  21 :  -0.2500 0.2500 0.2500  plane waves:   20079
 k-point  22 :   0.2500 0.2500-0.2500  plane waves:   20079
 k-point  23 :   0.0000 0.5000 0.2500  plane waves:   20068
 k-point  24 :   0.2500 0.5000 0.2500  plane waves:   20082
 k-point  25 :   0.5000 0.5000 0.2500  plane waves:   20104
 k-point  26 :  -0.2500 0.5000 0.2500  plane waves:   20068
 k-point  27 :   0.0000 0.0000 0.5000  plane waves:   20064
 k-point  28 :   0.2500 0.0000 0.5000  plane waves:   20066
 k-point  29 :   0.5000 0.0000 0.5000  plane waves:   20074
 k-point  30 :   0.0000 0.2500 0.5000  plane waves:   20048
 k-point  31 :   0.2500 0.2500 0.5000  plane waves:   20065
 k-point  32 :  -0.2500 0.2500 0.5000  plane waves:   20065
 k-point  33 :   0.5000 0.2500 0.5000  plane waves:   20094
 k-point  34 :   0.0000 0.5000 0.5000  plane waves:   20072
 k-point  35 :   0.2500 0.5000 0.5000  plane waves:   20056
 k-point  36 :   0.5000 0.5000 0.5000  plane waves:   20088

 maximum and minimum number of plane-waves per node :       334      297

 maximum number of plane-waves:     20112
 maximum index in each direction: 
   IXMAX=   17   IYMAX=   16   IZMAX=   17
   IXMIN=  -17   IYMIN=  -16   IZMIN=  -18


 parallel 3D FFT for wavefunctions:
    minimum data exchange during FFTs selected (reduces bandwidth)
 parallel 3D FFT for charge:
    minimum data exchange during FFTs selected (reduces bandwidth)


 total amount of memory used by VASP MPI-rank0    43783. kBytes
=======================================================================

   base      :      30000. kBytes
   nonl-proj :       2345. kBytes
   fftplans  :        918. kBytes
   grid      :       1562. kBytes
   one-center:          3. kBytes
   wavefun   :       8955. kBytes

     INWAV:  cpu time      0.0001: real time      0.0003
 Broyden mixing: mesh for mixing (old mesh)
   NGX = 35   NGY = 33   NGZ = 35
  (NGX  =140   NGY  =128   NGZ  =144)
  gives a total of  40425 points

 initial charge density was supplied:
 charge density of overlapping atoms calculated
 number of electron      88.0000000 magnetization 
 keeping initial charge density in first step


--------------------------------------------------------------------------------------------------------


 Maximum index for augmentation-charges           32 (set IRDMAX)


--------------------------------------------------------------------------------------------------------


 First call to EWALD:  gamma=   0.271
 Maximum number of real-space cells 3x 3x 3
 Maximum number of reciprocal cells 3x 3x 3

    FEWALD:  cpu time      0.0033: real time      0.0033


--------------------------------------- Ionic step        1  -------------------------------------------




--------------------------------------- Iteration      1(   1)  ---------------------------------------


vdW kernel read from vdw_kernel.bindat
  0.0000  0.2424  0.5071  0.7962  1.1119  1.4567  1.8333  2.2446  2.6937  3.1842
  3.7199  4.3049  4.9438  5.6415  6.4036  7.2358  8.1446  9.1372 10.2212 11.4050
 12.6979 14.1099 15.6519 17.3360 19.1751 21.1837 23.3773 25.7729 28.3892 31.2465
 34.3669 37.7748 41.4965 45.5611 50.0000

    POTLOK:  cpu time      1.1475: real time      1.1642
    SETDIJ:  cpu time      0.0708: real time      0.0714
    TRIAL :  cpu time      2.2371: real time      2.2382
    CORREC:  cpu time      0.0038: real time      0.0039
    --------------------------------------------
      LOOP:  cpu time      3.4650: real time      3.4838

 eigenvalue-minimisations  :  4608
 total energy-change (2. order) : 0.6996049E+03  (-0.6609167E+04)
 number of electron      88.0000000 magnetization 
 augmentation part       88.0000000 magnetization 

 Free energy of the ion-electron system (eV)
  ---------------------------------------------------
  alpha Z        PSCENC =        83.55220166
  Ewald energy   TEWEN  =     -1830.01301394
  -Hartree energ DENC   =     -1561.99897331
  -exchange      EXHF   =         0.00000000
  -V(xc)+E(xc)   XCENC  =       216.11835697
  PAW double counting   =      2786.82755665    -2720.56308196
  entropy T*S    EENTRO =        -0.00038681
  eigenvalues    EBANDS =       -18.28446310
  atomic energy  EATOM  =      3743.96666724
  ---------------------------------------------------
  free energy    TOTEN  =       699.60486337 eV

  energy without entropy =      699.60525019  energy(sigma->0) =      699.60505678


--------------------------------------------------------------------------------------------------------




--------------------------------------- Iteration      1(   2)  ---------------------------------------


    TRIAL :  cpu time      2.6314: real time      2.6330
    CORREC:  cpu time      0.0004: real time      0.0004
    --------------------------------------------
      LOOP:  cpu time      2.6446: real time      2.6622

 eigenvalue-minimisations  :  5944
 total energy-change (2. order) :-0.7669840E+03  (-0.7308369E+03)
 number of electron      88.0000000 magnetization 
 augmentation part       88.0000000 magnetization 

 Free energy of the ion-electron system (eV)
  ---------------------------------------------------
  alpha Z        PSCENC =        83.55220166
  Ewald energy   TEWEN  =     -1830.01301394
  -Hartree energ DENC   =     -1561.99897331
  -exchange      EXHF   =         0.00000000
  -V(xc)+E(xc)   XCENC  =       216.11835697
  PAW double counting   =      2786.82755665    -2720.56308196
  entropy T*S    EENTRO =        -0.00000000
  eigenvalues    EBANDS =      -785.26888735
  atomic energy  EATOM  =      3743.96666724
  ---------------------------------------------------
  free energy    TOTEN  =       -67.37917406 eV

  energy without entropy =      -67.37917406  energy(sigma->0) =      -67.37917406


--------------------------------------------------------------------------------------------------------




--------------------------------------- Iteration      1(   3)  ---------------------------------------


    TRIAL :  cpu time      2.5785: real time      2.5797
    CORREC:  cpu time      0.0004: real time      0.0004
    --------------------------------------------
      LOOP:  cpu time      2.5929: real time      2.6101

 eigenvalue-minimisations  :  5752
 total energy-change (2. order) :-0.1143844E+03  (-0.1129292E+03)
 number of electron      88.0000000 magnetization 
 augmentation part       88.0000000 magnetization 

 Free energy of the ion-electron system (eV)
  ---------------------------------------------------
  alpha Z        PSCENC =        83.55220166
  Ewald energy   TEWEN  =     -1830.01301394
  -Hartree energ DENC   =     -1561.99897331
  -exchange      EXHF   =         0.00000000
  -V(xc)+E(xc)   XCENC  =       216.11835697
  PAW double counting   =      2786.82755665    -2720.56308196
  entropy T*S    EENTRO =        -0.00000000
  eigenvalues    EBANDS =      -899.65327594
  atomic energy  EATOM  =      3743.96666724
  ---------------------------------------------------
  free energy    TOTEN  =      -181.76356265 eV

  energy without entropy =     -181.76356265  energy(sigma->0) =     -181.76356265


--------------------------------------------------------------------------------------------------------




--------------------------------------- Iteration      1(   4)  ---------------------------------------


    TRIAL :  cpu time      2.6268: real time      2.6283
    CORREC:  cpu time      0.0004: real time      0.0004
    --------------------------------------------
      LOOP:  cpu time      2.6404: real time      2.6588

 eigenvalue-minimisations  :  5928
 total energy-change (2. order) :-0.3588607E+01  (-0.3571724E+01)
 number of electron      88.0000000 magnetization 
 augmentation part       88.0000000 magnetization 

 Free energy of the ion-electron system (eV)
  ---------------------------------------------------
  alpha Z        PSCENC =        83.55220166
  Ewald energy   TEWEN  =     -1830.01301394
  -Hartree energ DENC   =     -1561.99897331
  -exchange      EXHF   =         0.00000000
  -V(xc)+E(xc)   XCENC  =       216.11835697
  PAW double counting   =      2786.82755665    -2720.56308196
  entropy T*S    EENTRO =        -0.00000000
  eigenvalues    EBANDS =      -903.24188310
  atomic energy  EATOM  =      3743.96666724
  ---------------------------------------------------
  free energy    TOTEN  =      -185.35216982 eV

  energy without entropy =     -185.35216982  energy(sigma->0) =     -185.35216982


--------------------------------------------------------------------------------------------------------




--------------------------------------- Iteration      1(   5)  ---------------------------------------


    TRIAL :  cpu time      2.7625: real time      2.7641
    CORREC:  cpu time      0.0004: real time      0.0004
    CHARGE:  cpu time      0.0851: real time      0.0857
    --------------------------------------------
      LOOP:  cpu time      2.8592: real time      2.8797

 eigenvalue-minimisations  :  6336
 total energy-change (2. order) :-0.1303839E+00  (-0.1302851E+00)
 number of electron      88.0000000 magnetization 
 augmentation part        0.3013784 magnetization 

 Free energy of the ion-electron system (eV)
  ---------------------------------------------------
  alpha Z        PSCENC =        83.55220166
  Ewald energy   TEWEN  =     -1830.01301394
  -Hartree energ DENC   =     -1561.99897331
  -exchange      EXHF   =         0.00000000
  -V(xc)+E(xc)   XCENC  =       216.11835697
  PAW double counting   =      2786.82755665    -2720.56308196
  entropy T*S    EENTRO =        -0.00000000
  eigenvalues    EBANDS =      -903.37226696
  atomic energy  EATOM  =      3743.96666724
  ---------------------------------------------------
  free energy    TOTEN  =      -185.48255367 eV

  energy without entropy =     -185.48255367  energy(sigma->0) =     -185.48255367


--------------------------------------------------------------------------------------------------------




--------------------------------------- Iteration      1(   6)  ---------------------------------------


    POTLOK:  cpu time      0.5228: real time      0.5234
    SETDIJ:  cpu time      0.0642: real time      0.0642
    TRIAL :  cpu time      1.3579: real time      1.3588
    CORREC:  cpu time      1.3558: real time      1.3563
    CHARGE:  cpu time      0.0667: real time      0.0667
    --------------------------------------------
      LOOP:  cpu time      3.3827: real time      3.3988

 eigenvalue-minimisations  :     0
 total energy-change (2. order) : 0.3294126E+02  (-0.1376402E+02)
 number of electron      88.0000000 magnetization 
 augmentation part        0.1826767 magnetization 

 Free energy of the ion-electron system (eV)
  ---------------------------------------------------
  alpha Z        PSCENC =        83.55220166
  Ewald energy   TEWEN  =     -1830.01301394
  -Hartree energ DENC   =     -2017.61653492
  -exchange      EXHF   =         0.00000000
  -V(xc)+E(xc)   XCENC  =       245.68794803
  PAW double counting   =     27974.06764211   -27912.36794518
  entropy T*S    EENTRO =        -0.00000000
  eigenvalues    EBANDS =      -439.81826195
  atomic energy  EATOM  =      3743.96666724
  ---------------------------------------------------
  free energy    TOTEN  =      -152.54129695 eV

  energy without entropy =     -152.54129695  energy(sigma->0) =     -152.54129695


--------------------------------------------------------------------------------------------------------




--------------------------------------- Iteration      1(   7)  ---------------------------------------


    POTLOK:  cpu time      0.5176: real time      0.5179
    SETDIJ:  cpu time      0.0670: real time      0.0670
    TRIAL :  cpu time      1.3231: real time      1.3234
    CORREC:  cpu time      1.3373: real time      1.3380
    CHARGE:  cpu time      0.0668: real time      0.0668
    --------------------------------------------
      LOOP:  cpu time      3.3426: real time      3.3441

 eigenvalue-minimisations  :     0
 total energy-change (2. order) :-0.1378559E+02  (-0.1821067E+01)
 number of electron      88.0000000 magnetization 
 augmentation part        0.1486810 magnetization 

 Free energy of the ion-electron system (eV)
  ---------------------------------------------------
  alpha Z        PSCENC =        83.55220166
  Ewald energy   TEWEN  =     -1830.01301394
  -Hartree energ DENC   =     -1809.35369825
  -exchange      EXHF   =         0.00000000
  -V(xc)+E(xc)   XCENC  =       233.31281084
  PAW double counting   =     35729.72252421   -35665.78882329
  entropy T*S    EENTRO =        -0.00000000
  eigenvalues    EBANDS =      -651.72555664
  atomic energy  EATOM  =      3743.96666724
  ---------------------------------------------------
  free energy    TOTEN  =      -166.32688818 eV

  energy without entropy =     -166.32688818  energy(sigma->0) =     -166.32688818


--------------------------------------------------------------------------------------------------------




--------------------------------------- Iteration      1(   8)  ---------------------------------------


    POTLOK:  cpu time      0.5217: real time      0.5217
    SETDIJ:  cpu time      0.0640: real time      0.0640
    TRIAL :  cpu time      1.3175: real time      1.3181
    CORREC:  cpu time      1.3405: real time      1.3410
    CHARGE:  cpu time      0.0669: real time      0.0669
    --------------------------------------------
      LOOP:  cpu time      3.3238: real time      3.3423

 eigenvalue-minimisations  :     0
 total energy-change (2. order) :-0.1830073E+01  (-0.7159538E+00)
 number of electron      88.0000000 magnetization 
 augmentation part        0.1455894 magnetization 

 Free energy of the ion-electron system (eV)
  ---------------------------------------------------
  alpha Z        PSCENC =        83.55220166
  Ewald energy   TEWEN  =     -1830.01301394
  -Hartree energ DENC   =     -1807.41664204
  -exchange      EXHF   =         0.00000000
  -V(xc)+E(xc)   XCENC  =       233.22575224
  PAW double counting   =     35836.66696908   -35772.53113056
  entropy T*S    EENTRO =        -0.00000000
  eigenvalues    EBANDS =      -655.60776470
  atomic energy  EATOM  =      3743.96666724
  ---------------------------------------------------
  free energy    TOTEN  =      -168.15696104 eV

  energy without entropy =     -168.15696104  energy(sigma->0) =     -168.15696104


--------------------------------------------------------------------------------------------------------




--------------------------------------- Iteration      1(   9)  ---------------------------------------


    POTLOK:  cpu time      0.6251: real time      0.6254
    SETDIJ:  cpu time      0.0639: real time      0.0639
    TRIAL :  cpu time      1.3158: real time      1.3161
    CORREC:  cpu time      1.3411: real time      1.3416
    CHARGE:  cpu time      0.0668: real time      0.0670
    --------------------------------------------
      LOOP:  cpu time      3.4274: real time      3.4446

 eigenvalue-minimisations  :     0
 total energy-change (2. order) :-0.7131165E+00  (-0.1969665E+00)
 number of electron      88.0000000 magnetization 
 augmentation part        0.1486599 magnetization 

 Free energy of the ion-electron system (eV)
  ---------------------------------------------------
  alpha Z        PSCENC =        83.55220166
  Ewald energy   TEWEN  =     -1830.01301394
  -Hartree energ DENC   =     -1802.52714772
  -exchange      EXHF   =         0.00000000
  -V(xc)+E(xc)   XCENC  =       232.99793862
  PAW double counting   =     36586.82751961   -36522.60629073
  entropy T*S    EENTRO =        -0.00000000
  eigenvalues    EBANDS =      -661.06795229
  atomic energy  EATOM  =      3743.96666724
  ---------------------------------------------------
  free energy    TOTEN  =      -168.87007757 eV

  energy without entropy =     -168.87007757  energy(sigma->0) =     -168.87007757


--------------------------------------------------------------------------------------------------------




--------------------------------------- Iteration      1(  10)  ---------------------------------------


    POTLOK:  cpu time      0.5202: real time      0.5202
    SETDIJ:  cpu time      0.0643: real time      0.0643
    TRIAL :  cpu time      1.3129: real time      1.3133
    CORREC:  cpu time      1.3480: real time      1.3489
    CHARGE:  cpu time      0.0692: real time      0.0692
    --------------------------------------------
      LOOP:  cpu time      3.3280: real time      3.3474

 eigenvalue-minimisations  :     0
 total energy-change (2. order) :-0.1959342E+00  (-0.4669084E-01)
 number of electron      88.0000000 magnetization 
 augmentation part        0.1518220 magnetization 

 Free energy of the ion-electron system (eV)
  ---------------------------------------------------
  alpha Z        PSCENC =        83.55220166
  Ewald energy   TEWEN  =     -1830.01301394
  -Hartree energ DENC   =     -1795.14155214
  -exchange      EXHF   =         0.00000000
  -V(xc)+E(xc)   XCENC  =       232.63192298
  PAW double counting   =     35831.53535575   -35767.31060479
  entropy T*S    EENTRO =        -0.00000000
  eigenvalues    EBANDS =      -668.28698851
  atomic energy  EATOM  =      3743.96666724
  ---------------------------------------------------
  free energy    TOTEN  =      -169.06601175 eV

  energy without entropy =     -169.06601175  energy(sigma->0) =     -169.06601175


--------------------------------------------------------------------------------------------------------




--------------------------------------- Iteration      1(  11)  ---------------------------------------


    POTLOK:  cpu time      0.5335: real time      0.5335
    SETDIJ:  cpu time      0.0638: real time      0.0638
    TRIAL :  cpu time      1.3239: real time      1.3245
    CORREC:  cpu time      1.3393: real time      1.3398
    CHARGE:  cpu time      0.0669: real time      0.0669
    --------------------------------------------
      LOOP:  cpu time      3.3397: real time      3.3586

 eigenvalue-minimisations  :     0
 total energy-change (2. order) :-0.4665385E-01  (-0.1070782E-01)
 number of electron      88.0000000 magnetization 
 augmentation part        0.1501061 magnetization 

 Free energy of the ion-electron system (eV)
  ---------------------------------------------------
  alpha Z        PSCENC =        83.55220166
  Ewald energy   TEWEN  =     -1830.01301394
  -Hartree energ DENC   =     -1795.39515556
  -exchange      EXHF   =         0.00000000
  -V(xc)+E(xc)   XCENC  =       232.60050575
  PAW double counting   =     35360.85391803   -35296.67426164
  entropy T*S    EENTRO =        -0.00000000
  eigenvalues    EBANDS =      -668.00352713
  atomic energy  EATOM  =      3743.96666724
  ---------------------------------------------------
  free energy    TOTEN  =      -169.11266560 eV

  energy without entropy =     -169.11266560  energy(sigma->0) =     -169.11266560


--------------------------------------------------------------------------------------------------------




--------------------------------------- Iteration      1(  12)  ---------------------------------------


    POTLOK:  cpu time      0.5216: real time      0.5219
    SETDIJ:  cpu time      0.0638: real time      0.0638
    TRIAL :  cpu time      1.3496: real time      1.3499
    CORREC:  cpu time      1.3439: real time      1.3448
    CHARGE:  cpu time      0.0665: real time      0.0665
    --------------------------------------------
      LOOP:  cpu time      3.3635: real time      3.3935

 eigenvalue-minimisations  :     0
 total energy-change (2. order) :-0.1070024E-01  (-0.2757670E-02)
 number of electron      88.0000000 magnetization 
 augmentation part        0.1502618 magnetization 

 Free energy of the ion-electron system (eV)
  ---------------------------------------------------
  alpha Z        PSCENC =        83.55220166
  Ewald energy   TEWEN  =     -1830.01301394
  -Hartree energ DENC   =     -1794.98281410
  -exchange      EXHF   =         0.00000000
  -V(xc)+E(xc)   XCENC  =       232.53544227
  PAW double counting   =     35333.71251324   -35269.52846463
  entropy T*S    EENTRO =        -0.00000000
  eigenvalues    EBANDS =      -668.36589757
  atomic energy  EATOM  =      3743.96666724
  ---------------------------------------------------
  free energy    TOTEN  =      -169.12336584 eV

  energy without entropy =     -169.12336584  energy(sigma->0) =     -169.12336584


--------------------------------------------------------------------------------------------------------




--------------------------------------- Iteration      1(  13)  ---------------------------------------


    POTLOK:  cpu time      0.5186: real time      0.5187
    SETDIJ:  cpu time      0.0641: real time      0.0641
    TRIAL :  cpu time      1.3163: real time      1.3170
    CORREC:  cpu time      1.3437: real time      1.3443
    CHARGE:  cpu time      0.0667: real time      0.0667
    --------------------------------------------
      LOOP:  cpu time      3.3265: real time      3.3420

 eigenvalue-minimisations  :     0
 total energy-change (2. order) :-0.2756821E-02  (-0.7739477E-03)
 number of electron      88.0000000 magnetization 
 augmentation part        0.1501745 magnetization 

 Free energy of the ion-electron system (eV)
  ---------------------------------------------------
  alpha Z        PSCENC =        83.55220166
  Ewald energy   TEWEN  =     -1830.01301394
  -Hartree energ DENC   =     -1795.34435552
  -exchange      EXHF   =         0.00000000
  -V(xc)+E(xc)   XCENC  =       232.55466655
  PAW double counting   =     35352.05360094   -35287.87501650
  entropy T*S    EENTRO =        -0.00000000
  eigenvalues    EBANDS =      -668.02087307
  atomic energy  EATOM  =      3743.96666724
  ---------------------------------------------------
  free energy    TOTEN  =      -169.12612266 eV

  energy without entropy =     -169.12612266  energy(sigma->0) =     -169.12612266


--------------------------------------------------------------------------------------------------------




--------------------------------------- Iteration      1(  14)  ---------------------------------------


    POTLOK:  cpu time      0.5179: real time      0.5180
    SETDIJ:  cpu time      0.0634: real time      0.0637
    TRIAL :  cpu time      1.3642: real time      1.3646
    CORREC:  cpu time      1.3399: real time      1.3403
    CHARGE:  cpu time      0.0666: real time      0.0666
    --------------------------------------------
      LOOP:  cpu time      3.3665: real time      3.3843

 eigenvalue-minimisations  :     0
 total energy-change (2. order) :-0.7758223E-03  (-0.2544365E-03)
 number of electron      88.0000000 magnetization 
 augmentation part        0.1505237 magnetization 

 Free energy of the ion-electron system (eV)
  ---------------------------------------------------
  alpha Z        PSCENC =        83.55220166
  Ewald energy   TEWEN  =     -1830.01301394
  -Hartree energ DENC   =     -1794.99077021
  -exchange      EXHF   =         0.00000000
  -V(xc)+E(xc)   XCENC  =       232.53198794
  PAW double counting   =     35386.21857816   -35322.03637259
  entropy T*S    EENTRO =        -0.00000000
  eigenvalues    EBANDS =      -668.35617673
  atomic energy  EATOM  =      3743.96666724
  ---------------------------------------------------
  free energy    TOTEN  =      -169.12689848 eV

  energy without entropy =     -169.12689848  energy(sigma->0) =     -169.12689848


--------------------------------------------------------------------------------------------------------




--------------------------------------- Iteration      1(  15)  ---------------------------------------


    POTLOK:  cpu time      0.5228: real time      0.5230
    SETDIJ:  cpu time      0.0638: real time      0.0638
    TRIAL :  cpu time      1.3254: real time      1.3257
    CORREC:  cpu time      1.3307: real time      1.3316
    CHARGE:  cpu time      0.0664: real time      0.0664
    --------------------------------------------
      LOOP:  cpu time      3.3395: real time      3.3413

 eigenvalue-minimisations  :     0
 total energy-change (2. order) :-0.2545749E-03  (-0.8567568E-04)
 number of electron      88.0000000 magnetization 
 augmentation part        0.1504674 magnetization 

 Free energy of the ion-electron system (eV)
  ---------------------------------------------------
  alpha Z        PSCENC =        83.55220166
  Ewald energy   TEWEN  =     -1830.01301394
  -Hartree energ DENC   =     -1795.38819666
  -exchange      EXHF   =         0.00000000
  -V(xc)+E(xc)   XCENC  =       232.55223758
  PAW double counting   =     35373.32165025   -35309.14307791
  entropy T*S    EENTRO =        -0.00000000
  eigenvalues    EBANDS =      -667.97562127
  atomic energy  EATOM  =      3743.96666724
  ---------------------------------------------------
  free energy    TOTEN  =      -169.12715305 eV

  energy without entropy =     -169.12715305  energy(sigma->0) =     -169.12715305


--------------------------------------------------------------------------------------------------------




--------------------------------------- Iteration      1(  16)  ---------------------------------------


    POTLOK:  cpu time      0.5305: real time      0.5305
    SETDIJ:  cpu time      0.0644: real time      0.0644
    TRIAL :  cpu time      1.3290: real time      1.3297
    CORREC:  cpu time      1.3379: real time      1.3385
    CHARGE:  cpu time      0.0662: real time      0.0662
    --------------------------------------------
      LOOP:  cpu time      3.3417: real time      3.3599

 eigenvalue-minimisations  :     0
 total energy-change (2. order) :-0.8651806E-04  (-0.2816829E-04)
 number of electron      88.0000000 magnetization 
 augmentation part        0.1505701 magnetization 

 Free energy of the ion-electron system (eV)
  ---------------------------------------------------
  alpha Z        PSCENC =        83.55220166
  Ewald energy   TEWEN  =     -1830.01301394
  -Hartree energ DENC   =     -1795.26540837
  -exchange      EXHF   =         0.00000000
  -V(xc)+E(xc)   XCENC  =       232.54617029
  PAW double counting   =     35370.42374668   -35306.24337531
  entropy T*S    EENTRO =        -0.00000000
  eigenvalues    EBANDS =      -668.09422782
  atomic energy  EATOM  =      3743.96666724
  ---------------------------------------------------
  free energy    TOTEN  =      -169.12723957 eV

  energy without entropy =     -169.12723957  energy(sigma->0) =     -169.12723957


--------------------------------------------------------------------------------------------------------




--------------------------------------- Iteration      1(  17)  ---------------------------------------


    POTLOK:  cpu time      0.5196: real time      0.5200
    SETDIJ:  cpu time      0.0643: real time      0.0643
    TRIAL :  cpu time      1.3136: real time      1.3140
    CORREC:  cpu time      1.3461: real time      1.3466
    CHARGE:  cpu time      0.0665: real time      0.0665
    --------------------------------------------
      LOOP:  cpu time      3.3249: real time      3.3413

 eigenvalue-minimisations  :     0
 total energy-change (2. order) :-0.2825455E-04  (-0.8864124E-05)
 number of electron      88.0000000 magnetization 
 augmentation part        0.1504881 magnetization 

 Free energy of the ion-electron system (eV)
  ---------------------------------------------------
  alpha Z        PSCENC =        83.55220166
  Ewald energy   TEWEN  =     -1830.01301394
  -Hartree energ DENC   =     -1795.33252968
  -exchange      EXHF   =         0.00000000
  -V(xc)+E(xc)   XCENC  =       232.55088092
  PAW double counting   =     35371.49884555   -35307.31912338
  entropy T*S    EENTRO =        -0.00000000
  eigenvalues    EBANDS =      -668.03119619
  atomic energy  EATOM  =      3743.96666724
  ---------------------------------------------------
  free energy    TOTEN  =      -169.12726783 eV

  energy without entropy =     -169.12726783  energy(sigma->0) =     -169.12726783


--------------------------------------------------------------------------------------------------------




--------------------------------------- Iteration      1(  18)  ---------------------------------------


    POTLOK:  cpu time      0.5208: real time      0.5211
    SETDIJ:  cpu time      0.0642: real time      0.0642
    TRIAL :  cpu time      1.3191: real time      1.3195
    CORREC:  cpu time      1.3430: real time      1.3438
    CHARGE:  cpu time      0.0665: real time      0.0665
    --------------------------------------------
      LOOP:  cpu time      3.3429: real time      3.3446

 eigenvalue-minimisations  :     0
 total energy-change (2. order) :-0.8700328E-05  (-0.2708072E-05)
 number of electron      88.0000000 magnetization 
 augmentation part        0.1504965 magnetization 

 Free energy of the ion-electron system (eV)
  ---------------------------------------------------
  alpha Z        PSCENC =        83.55220166
  Ewald energy   TEWEN  =     -1830.01301394
  -Hartree energ DENC   =     -1795.31088916
  -exchange      EXHF   =         0.00000000
  -V(xc)+E(xc)   XCENC  =       232.54939950
  PAW double counting   =     35374.54791168   -35310.36755421
  entropy T*S    EENTRO =        -0.00000000
  eigenvalues    EBANDS =      -668.05199928
  atomic energy  EATOM  =      3743.96666724
  ---------------------------------------------------
  free energy    TOTEN  =      -169.12727653 eV

  energy without entropy =     -169.12727653  energy(sigma->0) =     -169.12727653


--------------------------------------------------------------------------------------------------------




--------------------------------------- Iteration      1(  19)  ---------------------------------------


    POTLOK:  cpu time      0.5180: real time      0.5180
    SETDIJ:  cpu time      0.0643: real time      0.0643
    TRIAL :  cpu time      1.3322: real time      1.3330
    CORREC:  cpu time      1.3472: real time      1.3477
    CHARGE:  cpu time      0.0710: real time      0.0710
    --------------------------------------------
      LOOP:  cpu time      3.3475: real time      3.3646

 eigenvalue-minimisations  :     0
 total energy-change (2. order) :-0.2644771E-05  (-0.7773912E-06)
 number of electron      88.0000000 magnetization 
 augmentation part        0.1504792 magnetization 

 Free energy of the ion-electron system (eV)
  ---------------------------------------------------
  alpha Z        PSCENC =        83.55220166
  Ewald energy   TEWEN  =     -1830.01301394
  -Hartree energ DENC   =     -1795.32409209
  -exchange      EXHF   =         0.00000000
  -V(xc)+E(xc)   XCENC  =       232.55046373
  PAW double counting   =     35374.15433140   -35309.97424526
  entropy T*S    EENTRO =        -0.00000000
  eigenvalues    EBANDS =      -668.03959191
  atomic energy  EATOM  =      3743.96666724
  ---------------------------------------------------
  free energy    TOTEN  =      -169.12727917 eV

  energy without entropy =     -169.12727917  energy(sigma->0) =     -169.12727917


--------------------------------------------------------------------------------------------------------




--------------------------------------- Iteration      1(  20)  ---------------------------------------


    POTLOK:  cpu time      0.5182: real time      0.5186
    SETDIJ:  cpu time      0.0638: real time      0.0638
    TRIAL :  cpu time      1.3195: real time      1.3198
    CORREC:  cpu time      1.3393: real time      1.3398
    CHARGE:  cpu time      0.0666: real time      0.0666
    --------------------------------------------
      LOOP:  cpu time      3.3246: real time      3.3386

 eigenvalue-minimisations  :     0
 total energy-change (2. order) :-0.7705021E-06  (-0.2581297E-06)
 number of electron      88.0000000 magnetization 
 augmentation part        0.1504876 magnetization 

 Free energy of the ion-electron system (eV)
  ---------------------------------------------------
  alpha Z        PSCENC =        83.55220166
  Ewald energy   TEWEN  =     -1830.01301394
  -Hartree energ DENC   =     -1795.30820180
  -exchange      EXHF   =         0.00000000
  -V(xc)+E(xc)   XCENC  =       232.54959931
  PAW double counting   =     35373.67017765   -35309.48996508
  entropy T*S    EENTRO =        -0.00000000
  eigenvalues    EBANDS =      -668.05474498
  atomic energy  EATOM  =      3743.96666724
  ---------------------------------------------------
  free energy    TOTEN  =      -169.12727994 eV

  energy without entropy =     -169.12727994  energy(sigma->0) =     -169.12727994


--------------------------------------------------------------------------------------------------------




--------------------------------------- Iteration      1(  21)  ---------------------------------------


    POTLOK:  cpu time      0.5216: real time      0.5219
    SETDIJ:  cpu time      0.0638: real time      0.0638
    TRIAL :  cpu time      1.3967: real time      1.3971
    CORREC:  cpu time      1.3368: real time      1.3378
    CHARGE:  cpu time      0.0668: real time      0.0669
    --------------------------------------------
      LOOP:  cpu time      3.3994: real time      3.4184

 eigenvalue-minimisations  :     0
 total energy-change (2. order) :-0.2371235E-06  (-0.5138638E-07)
 number of electron      88.0000000 magnetization 
 augmentation part        0.1504837 magnetization 

 Free energy of the ion-electron system (eV)
  ---------------------------------------------------
  alpha Z        PSCENC =        83.55220166
  Ewald energy   TEWEN  =     -1830.01301394
  -Hartree energ DENC   =     -1795.31675697
  -exchange      EXHF   =         0.00000000
  -V(xc)+E(xc)   XCENC  =       232.55002087
  PAW double counting   =     35372.73811556   -35308.55803313
  entropy T*S    EENTRO =        -0.00000000
  eigenvalues    EBANDS =      -668.04648145
  atomic energy  EATOM  =      3743.96666724
  ---------------------------------------------------
  free energy    TOTEN  =      -169.12728018 eV

  energy without entropy =     -169.12728018  energy(sigma->0) =     -169.12728018


--------------------------------------------------------------------------------------------------------




--------------------------------------- Iteration      1(  22)  ---------------------------------------


    POTLOK:  cpu time      0.5211: real time      0.5211
    SETDIJ:  cpu time      0.0639: real time      0.0639
    TRIAL :  cpu time      1.3180: real time      1.3186
    CORREC:  cpu time      1.3398: real time      1.3403
    EDDIAG:  cpu time      0.7320: real time      0.7323
    CHARGE:  cpu time      0.0661: real time      0.0661
    --------------------------------------------
      LOOP:  cpu time      4.0549: real time      4.0725

 eigenvalue-minimisations  :     0
 total energy-change (2. order) :-0.5234688E-07  (-0.1876965E-07)
 number of electron      88.0000000 magnetization 
 augmentation part        0.1504834 magnetization 

 Free energy of the ion-electron system (eV)
  ---------------------------------------------------
  alpha Z        PSCENC =        83.55220166
  Ewald energy   TEWEN  =     -1830.01301394
  -Hartree energ DENC   =     -1795.31204345
  -exchange      EXHF   =         0.00000000
  -V(xc)+E(xc)   XCENC  =       232.54974694
  PAW double counting   =     35372.64813746   -35308.46801157
  entropy T*S    EENTRO =        -0.00000000
  eigenvalues    EBANDS =      -668.05096456
  atomic energy  EATOM  =      3743.96666724
  ---------------------------------------------------
  free energy    TOTEN  =      -169.12728023 eV

  energy without entropy =     -169.12728023  energy(sigma->0) =     -169.12728023


--------------------------------------------------------------------------------------------------------


[...]
      2     -20.8037      2.00000
      3     -20.7580      2.00000
      4     -20.7120      2.00000
      5     -15.3880      2.00000
      6     -15.2787      2.00000
      7     -13.7437      2.00000
      8     -13.5827      2.00000
      9     -12.1121      2.00000
     10     -12.1055      2.00000
     11     -10.7390      2.00000
     12     -10.6868      2.00000
     13      -8.4893      2.00000
     14      -8.4334      2.00000
     15      -7.3217      2.00000
     16      -7.2449      2.00000
     17      -7.0408      2.00000
     18      -6.9489      2.00000
     19      -6.3649      2.00000
     20      -6.3054      2.00000
     21      -6.1993      2.00000
     22      -6.1149      2.00000
     23      -5.5476      2.00000
     24      -5.3741      2.00000
     25      -5.1517      2.00000
     26      -5.0264      2.00000
     27      -4.8739      2.00000
     28      -4.7076      2.00000
     29      -4.5501      2.00000
     30      -4.3941      2.00000
     31      -4.3396      2.00000
     32      -4.3003      2.00000
     33      -3.9857      2.00000
     34      -3.7007      2.00000
     35      -3.5628      2.00000
     36      -3.3564      2.00000
     37      -3.2228      2.00000
     38      -3.1503      2.00000
     39      -2.8377      2.00000
     40      -2.6910      2.00000
     41      -0.5902      2.00000
     42      -0.4881      2.00000
     43      -0.3785      2.00000
     44      -0.3169      2.00000
     45       3.1291      0.00000
     46       3.5125      0.00000
     47       3.5359      0.00000
     48       3.7260      0.00000
     49       6.1090      0.00000
     50       6.2921      0.00000
     51       6.5439      0.00000
     52       6.7043      0.00000
     53       7.2847      0.00000
     54       7.5955      0.00000
     55       7.9966      0.00000
     56       8.1616      0.00000
     57       8.1952      0.00000
     58       8.4135      0.00000
     59       8.8598      0.00000
     60       9.0843      0.00000
     61       9.2237      0.00000
     62       9.5198      0.00000
     63       9.8593      0.00000
     64      10.0573      0.00000

 k-point    34 :       0.0000    0.5000    0.5000
  band No.  band energies     occupation 
      1     -20.8615      2.00000
      2     -20.8613      2.00000
      3     -20.7359      2.00000
      4     -20.7359      2.00000
      5     -15.3502      2.00000
      6     -15.3501      2.00000
      7     -13.6114      2.00000
      8     -13.6114      2.00000
      9     -12.0911      2.00000
     10     -12.0910      2.00000
     11     -10.7840      2.00000
     12     -10.7840      2.00000
     13      -8.5572      2.00000
     14      -8.5572      2.00000
     15      -7.3635      2.00000
     16      -7.3635      2.00000
     17      -6.7826      2.00000
     18      -6.7826      2.00000
     19      -6.4236      2.00000
     20      -6.4236      2.00000
     21      -6.1789      2.00000
     22      -6.1789      2.00000
     23      -5.3034      2.00000
     24      -5.3034      2.00000
     25      -5.1427      2.00000
     26      -5.1427      2.00000
     27      -4.7728      2.00000
     28      -4.7728      2.00000
     29      -4.4390      2.00000
     30      -4.4390      2.00000
     31      -4.2808      2.00000
     32      -4.2808      2.00000
     33      -3.8365      2.00000
     34      -3.8365      2.00000
     35      -3.4554      2.00000
     36      -3.4553      2.00000
     37      -3.2029      2.00000
     38      -3.2029      2.00000
     39      -2.7843      2.00000
     40      -2.7842      2.00000
     41      -0.5358      2.00000
     42      -0.5357      2.00000
     43      -0.4090      2.00000
     44      -0.4090      2.00000
     45       3.3129      0.00000
     46       3.3130      0.00000
     47       3.6034      0.00000
     48       3.6035      0.00000
     49       6.2384      0.00000
     50       6.2384      0.00000
     51       6.4675      0.00000
     52       6.4676      0.00000
     53       7.5206      0.00000
     54       7.5206      0.00000
     55       8.2338      0.00000
     56       8.2341      0.00000
     57       8.5617      0.00000
     58       8.5715      0.00000
     59       8.7868      0.00000
     60       8.8189      0.00000
     61       9.2073      0.00000
     62       9.2254      0.00000
     63       9.8602      0.00000
     64       9.8759      0.00000

 k-point    35 :       0.2500    0.5000    0.5000
  band No.  band energies     occupation 
      1     -20.8617      2.00000
      2     -20.8615      2.00000
      3     -20.7355      2.00000
      4     -20.7354      2.00000
      5     -15.3422      2.00000
      6     -15.3422      2.00000
      7     -13.6384      2.00000
      8     -13.6384      2.00000
      9     -12.0999      2.00000
     10     -12.0999      2.00000
     11     -10.7508      2.00000
     12     -10.7508      2.00000
     13      -8.5090      2.00000
     14      -8.5090      2.00000
     15      -7.3300      2.00000
     16      -7.3300      2.00000
     17      -6.9066      2.00000
     18      -6.9065      2.00000
     19      -6.3392      2.00000
     20      -6.3392      2.00000
     21      -6.1522      2.00000
     22      -6.1522      2.00000
     23      -5.3775      2.00000
     24      -5.3775      2.00000
     25      -5.1455      2.00000
     26      -5.1455      2.00000
     27      -4.7885      2.00000
     28      -4.7885      2.00000
     29      -4.4881      2.00000
     30      -4.4880      2.00000
     31      -4.2654      2.00000
     32      -4.2654      2.00000
     33      -3.8487      2.00000
     34      -3.8487      2.00000
     35      -3.4471      2.00000
     36      -3.4471      2.00000
     37      -3.1859      2.00000
     38      -3.1858      2.00000
     39      -2.7790      2.00000
     40      -2.7790      2.00000
     41      -0.5410      2.00000
     42      -0.5409      2.00000
     43      -0.3737      2.00000
     44      -0.3737      2.00000
     45       3.3040      0.00000
     46       3.3041      0.00000
     47       3.6092      0.00000
     48       3.6093      0.00000
     49       6.2309      0.00000
     50       6.2309      0.00000
     51       6.6750      0.00000
     52       6.6750      0.00000
     53       7.3899      0.00000
     54       7.3899      0.00000
     55       7.9824      0.00000
     56       7.9836      0.00000
     57       8.4363      0.00000
     58       8.4372      0.00000
     59       8.8569      0.00000
     60       8.8946      0.00000
     61       9.4220      0.00000
     62       9.4910      0.00000
     63       9.6542      0.00000
     64       9.9961      0.00000

 k-point    36 :       0.5000    0.5000    0.5000
  band No.  band energies     occupation 
      1     -20.8619      2.00000
      2     -20.8618      2.00000
      3     -20.7350      2.00000
      4     -20.7350      2.00000
      5     -15.3342      2.00000
      6     -15.3341      2.00000
      7     -13.6653      2.00000
      8     -13.6653      2.00000
      9     -12.1079      2.00000
     10     -12.1079      2.00000
     11     -10.7193      2.00000
     12     -10.7193      2.00000
     13      -8.4575      2.00000
     14      -8.4575      2.00000
     15      -7.2347      2.00000
     16      -7.2347      2.00000
     17      -7.0857      2.00000
     18      -7.0857      2.00000
     19      -6.2449      2.00000
     20      -6.2449      2.00000
     21      -6.1313      2.00000
     22      -6.1313      2.00000
     23      -5.4653      2.00000
     24      -5.4653      2.00000
     25      -5.1699      2.00000
     26      -5.1699      2.00000
     27      -4.7929      2.00000
     28      -4.7929      2.00000
     29      -4.4523      2.00000
     30      -4.4522      2.00000
     31      -4.3458      2.00000
     32      -4.3458      2.00000
     33      -3.8158      2.00000
     34      -3.8158      2.00000
     35      -3.4674      2.00000
     36      -3.4674      2.00000
     37      -3.1654      2.00000
     38      -3.1654      2.00000
     39      -2.7715      2.00000
     40      -2.7715      2.00000
     41      -0.5436      2.00000
     42      -0.5435      2.00000
     43      -0.3413      2.00000
     44      -0.3413      2.00000
     45       3.2964      0.00000
     46       3.2965      0.00000
     47       3.6112      0.00000
     48       3.6112      0.00000
     49       6.3032      0.00000
     50       6.3033      0.00000
     51       6.9496      0.00000
     52       6.9497      0.00000
     53       7.0745      0.00000
     54       7.0745      0.00000
     55       7.8235      0.00000
     56       7.8235      0.00000
     57       8.3332      0.00000
     58       8.3335      0.00000
     59       9.0670      0.00000
     60       9.0747      0.00000
     61       9.2732      0.00000
     62       9.3074      0.00000
     63       9.7276      0.00000
     64       9.9552      0.00000


--------------------------------------------------------------------------------------------------------


 soft charge-density along one line, spin component           1
         0         1         2         3         4         5         6         7         8         9
 total charge-density along one line

 pseudopotential strength for first ion, spin component:           1
 12.596  21.197  -0.000   0.008   0.004  -0.000   0.014   0.008
 21.197  35.669  -0.000   0.013   0.007  -0.000   0.023   0.013
 -0.000  -0.000  -3.154  -0.000   0.000  -5.650  -0.001   0.000
  0.008   0.013  -0.000  -3.132  -0.000  -0.001  -5.611  -0.001
  0.004   0.007   0.000  -0.000  -3.131   0.000  -0.001  -5.609
 -0.000  -0.000  -5.650  -0.001   0.000 -10.098  -0.001   0.001
  0.014   0.023  -0.001  -5.611  -0.001  -0.001 -10.030  -0.002
  0.008   0.013   0.000  -0.001  -5.609   0.001  -0.002 -10.026
 total augmentation occupancy for first ion, spin component:           1
  7.362  -2.617  -0.057   2.178   1.110   0.025  -1.021  -0.521
 -2.617   1.041   0.027  -1.118  -0.574  -0.011   0.501   0.257
 -0.057   0.027   2.541  -0.077  -0.021  -0.688   0.030   0.013
  2.178  -1.118  -0.077   8.103   1.402   0.030  -2.900  -0.645
  1.110  -0.574  -0.021   1.402   6.141   0.013  -0.645  -1.990
  0.025  -0.011  -0.688   0.030   0.013   0.189  -0.012  -0.006
 -1.021   0.501   0.030  -2.900  -0.645  -0.012   1.080   0.286
 -0.521   0.257   0.013  -0.645  -1.990  -0.006   0.286   0.676


------------------------ aborting loop because EDIFF is reached ----------------------------------------


    FORLOC:  cpu time      0.0060: real time      0.0060
    FORNL :  cpu time      0.4888: real time      0.4892
    FORCOR:  cpu time      0.5838: real time      0.5843
    OFIELD:  cpu time      0.0029: real time      0.0029

 VOLUME and BASIS-vectors are now :
 -----------------------------------------------------------------------------
  energy-cutoff  :     1000.00
  volume of cell :      279.55
      direct lattice vectors                 reciprocal lattice vectors
     6.650000000  0.000000000  0.000000000     0.150375940 -0.000000000  0.026028459
     0.000000000  6.210000000  0.000000000     0.000000000  0.161030596 -0.000000000
    -1.171700000  0.000000000  6.769340000     0.000000000  0.000000000  0.147724889

  length of vectors
     6.650000000  6.210000000  6.869995992     0.152611939  0.161030596  0.147724889


 FORCES acting on ions:
    Electron-Ion                     Ewald-Force                    Non-Local-Force
 -----------------------------------------------------------------------------------------------
   0.352E+02 -.790E+01 0.556E+02   -.377E+02 0.791E+01 -.598E+02   0.257E+01 -.321E-02 0.428E+01
   -.352E+02 -.791E+01 -.556E+02   0.377E+02 0.792E+01 0.598E+02   -.257E+01 -.344E-02 -.428E+01
   -.103E+03 0.107E+01 0.371E+02   0.105E+03 -.507E+00 -.366E+02   -.146E+01 -.619E+00 -.573E+00
   0.103E+03 0.106E+01 -.371E+02   -.105E+03 -.501E+00 0.366E+02   0.146E+01 -.619E+00 0.573E+00
   -.490E+02 -.574E+02 0.672E+02   0.496E+02 0.579E+02 -.696E+02   -.451E+00 -.240E+00 0.218E+01
   0.490E+02 -.574E+02 -.672E+02   -.496E+02 0.579E+02 0.696E+02   0.451E+00 -.241E+00 -.218E+01
   -.128E+02 -.249E+02 -.430E+02   0.144E+02 0.268E+02 0.471E+02   -.160E+01 -.185E+01 -.402E+01
   0.128E+02 -.249E+02 0.430E+02   -.144E+02 0.268E+02 -.471E+02   0.160E+01 -.185E+01 0.402E+01
   0.920E+02 0.509E+02 -.354E+02   -.932E+02 -.524E+02 0.349E+02   0.105E+01 0.126E+01 0.532E+00
   -.920E+02 0.509E+02 0.354E+02   0.932E+02 -.523E+02 -.349E+02   -.105E+01 0.126E+01 -.532E+00
   0.103E+03 -.289E+02 -.583E+02   -.104E+03 0.292E+02 0.604E+02   0.956E+00 -.103E+00 -.196E+01
   -.103E+03 -.289E+02 0.583E+02   0.104E+03 0.292E+02 -.604E+02   -.956E+00 -.103E+00 0.196E+01
   -.468E+02 -.263E+02 0.761E+00   0.511E+02 0.300E+02 -.310E+00   -.430E+01 -.380E+01 -.466E+00
   0.468E+02 -.263E+02 -.760E+00   -.511E+02 0.300E+02 0.308E+00   0.430E+01 -.380E+01 0.466E+00
   -.363E+02 0.399E+02 0.976E+01   0.387E+02 -.449E+02 -.101E+02   -.239E+01 0.509E+01 0.343E+00
   0.363E+02 0.399E+02 -.977E+01   -.387E+02 -.449E+02 0.101E+02   0.239E+01 0.509E+01 -.343E+00
   0.112E+02 -.535E+02 0.822E+01   -.132E+02 0.587E+02 -.797E+01   0.197E+01 -.526E+01 -.272E+00
   -.112E+02 -.535E+02 -.822E+01   0.132E+02 0.587E+02 0.797E+01   -.197E+01 -.526E+01 0.272E+00
   -.289E+02 -.812E+00 0.394E+02   0.320E+02 0.301E+00 -.442E+02   -.308E+01 0.527E+00 0.491E+01
   0.289E+02 -.811E+00 -.394E+02   -.320E+02 0.300E+00 0.442E+02   0.308E+01 0.527E+00 -.491E+01
   0.645E+01 0.521E+02 -.145E+02   -.549E+01 -.575E+02 0.157E+02   -.100E+01 0.549E+01 -.122E+01
   -.645E+01 0.521E+02 0.145E+02   0.549E+01 -.575E+02 -.157E+02   0.100E+01 0.549E+01 0.122E+01
   0.550E+02 0.990E-01 -.401E+00   -.605E+02 0.369E+00 -.444E+00   0.562E+01 -.477E+00 0.872E+00
   -.550E+02 0.981E-01 0.400E+00   0.605E+02 0.370E+00 0.445E+00   -.562E+01 -.477E+00 -.872E+00
   0.269E+02 -.502E+02 -.140E+01   -.284E+02 0.554E+02 0.301E+00   0.151E+01 -.529E+01 0.115E+01
   -.269E+02 -.502E+02 0.140E+01   0.284E+02 0.554E+02 -.301E+00   -.151E+01 -.529E+01 -.115E+01
   0.340E+02 0.897E+01 -.414E+02   -.365E+02 -.104E+02 0.464E+02   0.246E+01 0.146E+01 -.507E+01
   -.340E+02 0.897E+01 0.414E+02   0.365E+02 -.104E+02 -.464E+02   -.246E+01 0.146E+01 0.507E+01
   -.105E+03 0.839E+01 -.203E+03   0.127E+03 -.930E+01 0.247E+03   -.222E+02 0.898E+00 -.441E+02
   0.105E+03 0.839E+01 0.203E+03   -.127E+03 -.930E+01 -.247E+03   0.222E+02 0.900E+00 0.441E+02
   0.592E+02 0.719E+02 0.197E+03   -.748E+02 -.916E+02 -.240E+03   0.155E+02 0.197E+02 0.426E+02
   -.592E+02 0.719E+02 -.197E+03   0.748E+02 -.916E+02 0.240E+03   -.155E+02 0.197E+02 -.426E+02
 -----------------------------------------------------------------------------------------------
   -.105E-02 -.335E+02 0.127E-02   -.853E-13 0.142E-13 -.114E-12   0.103E-02 0.335E+02 -.127E-02


 POSITION                                       TOTAL-FORCE (eV/Angst)
 -----------------------------------------------------------------------------------
      2.33943      1.04586      3.02756        -0.004290      0.007001     -0.004538
      3.13887      4.15084      3.74174         0.003996      0.007005      0.004097
      3.14138      1.05382      1.74136         0.355357     -0.052492     -0.028964
      2.33692      4.15884      5.02796        -0.355342     -0.052610      0.028624
      2.29868      1.33346      0.48877         0.098176      0.235012     -0.227464
      3.17960      4.43849      6.28055        -0.098035      0.234905      0.227496
      1.08332      0.43536      0.40806         0.015521      0.002685      0.013559
      4.39496      3.54038      6.36128        -0.015542      0.002687     -0.013825
      0.37650      0.15086      1.71908        -0.262136     -0.242902      0.059909
      5.10181      3.25588      5.05027         0.261925     -0.242844     -0.059675
      0.83730      1.05014      2.87842        -0.241855      0.173433      0.200309
      4.64101      4.15513      3.89090         0.241783      0.173415     -0.200650
      3.96089      1.78028      1.83684        -0.061822     -0.071517     -0.015036
      1.51741      4.88530      4.93246         0.061829     -0.071439      0.015008
      3.60389      0.05582      1.67215        -0.025620      0.103318     -0.006631
      1.87439      3.16085      5.09717         0.025649      0.103298      0.006653
      1.90932      2.36598      0.54620         0.049494     -0.073222     -0.021150
      3.56892      5.47102      6.22314        -0.049386     -0.073255      0.021132
      1.71477      1.23496      6.33619        -0.038587      0.016390      0.098214
      3.76351      4.33996      0.43313         0.038468      0.016443     -0.098246
      0.57545      5.30210      1.95712        -0.041062      0.085607     -0.013254
      4.90287      2.19711      4.81225         0.041078      0.085503      0.013154
      5.94595      0.24489      1.55324         0.075989     -0.009008      0.027130
     -0.46765      3.34992      5.21611        -0.075881     -0.008997     -0.027094
      0.55432      2.09483      2.65180         0.007015     -0.080885      0.042773
      4.92398      5.19983      4.11753        -0.007042     -0.080890     -0.042861
      0.37111      0.76905      3.83222         0.017909      0.023079     -0.089048
      5.10722      3.87403      2.93710        -0.018083      0.023190      0.089462
      2.89745      1.02711      4.12245         0.129119     -0.019533      0.225294
      2.58086      4.13202      2.64683        -0.128664     -0.019409     -0.224285
     -0.47541      6.15418      6.12126        -0.079871     -0.097034     -0.234091
      5.95364      3.04916      0.64808         0.079910     -0.096935      0.233998
 -----------------------------------------------------------------------------------
    total drift:                               -0.000014      0.000026     -0.000007


--------------------------------------------------------------------------------------------------------



  FREE ENERGIE OF THE ION-ELECTRON SYSTEM (eV)
  ---------------------------------------------------
  free  energy   TOTEN  =      -169.12728023 eV

  energy  without entropy=     -169.12728023  energy(sigma->0) =     -169.12728023



--------------------------------------------------------------------------------------------------------


    POTLOK:  cpu time      0.5877: real time      0.5880


--------------------------------------------------------------------------------------------------------


 stress matrix after NEB project (eV)
      0.00000      0.00000      0.00000
      0.00000      0.00000      0.00000
      0.00000      0.00000      0.00000
  FORCES: max atom, RMS     0.362362    0.211870
  FORCE total and by dimension    1.198516    0.355357
  Stress total and by dimension    0.000000    0.000000
     LOOP+:  cpu time     77.4798: real time     77.9035
    4ORBIT:  cpu time      0.0000: real time      0.0000

 total amount of memory used by VASP MPI-rank0    43783. kBytes
=======================================================================

   base      :      30000. kBytes
   nonl-proj :       2345. kBytes
   fftplans  :        918. kBytes
   grid      :       1562. kBytes
   one-center:          3. kBytes
   wavefun   :       8955. kBytes

  
  
 General timing and accounting informations for this job:
 ========================================================
  
                  Total CPU time used (sec):      101.007
                            User time (sec):       98.991
                          System time (sec):        2.016
                         Elapsed time (sec):      105.704
  
                   Maximum memory used (kb):      295672.
                   Average memory used (kb):          N/A
  
                          Minor page faults:        60586
                          Major page faults:          230
                 Voluntary context switches:         6274
