 vasp.6.4.1 05Apr23 (build Jun  6 2023 14:36:51) complex                         
 executed on        HPECrayEX_GCC date 2024.08.20  14:34:04
 running  256 mpi-ranks, with    1 threads/rank, on    2 nodes
 distrk:  each k-point on  128 cores,    2 groups
 distr:  one band on NCORE=  32 cores,    4 groups


--------------------------------------------------------------------------------------------------------


 INCAR:
   ALGO = Conjugate
   KPAR = 2
   NCORE = 32
   ISMEAR = 0
   SIGMA = 0.01
   PREC = Accurate
   EDIFF = 1E-7
   ENCUT = 1000
   ISIF = 0
   METAGGA = SCAN
   LUSE_VDW = .TRUE.
   BPARAM = 15.7
   LASPH = .TRUE.
   SYMPREC = 1E-7
   NELM = 200
   LWAVE = .FALSE.
   LCHARGE = .FALSE.

 POTCAR:    PAW_PBE C_h 06Feb2004                 
 POTCAR:    PAW_PBE H_h 06Feb2004                 
 POTCAR:    PAW_PBE O_h 06Feb2004                 
 -----------------------------------------------------------------------------
|                                                                             |
|               ----> ADVICE to this user running VASP <----                  |
|                                                                             |
|     You have switched on vdW-DFT.                                           |
|     This routine was written and supplied by Jiri Klimes. We recommend      |
|     that you carefully read and cite the following publications:            |
|       J. Klimes, D.R. Bowler, A. Michelides                                 |
|          J. Phys.: Cond Matt. 22 022201 (2010)                              |
|       J. Klimes, D.R. Bowler, A. Michelides                                 |
|          Phys. Rev. B. 83, 195131 (2011)                                    |
|     and references therein.                                                 |
|                                                                             |
 -----------------------------------------------------------------------------

 POTCAR:    PAW_PBE C_h 06Feb2004                 
   VRHFIN =C: s2p2                                                                                  
   LEXCH  = PE                                                                                      
   EATOM  =   147.1560 eV,   10.8157 Ry                                                             
                                                                                                    
   TITEL  = PAW_PBE C_h 06Feb2004                                                                   
   LULTRA =        F    use ultrasoft PP ?                                                          
   IUNSCR =        1    unscreen: 0-lin 1-nonlin 2-no                                               
   RPACOR =    0.800    partial core radius                                                         
   POMASS =   12.011; ZVAL   =    4.000    mass and valenz                                          
   RCORE  =    1.100    outmost cutoff radius                                                       
   RWIGS  =    1.630; RWIGS  =    0.863    wigner-seitz radius (au A)                               
   ENMAX  =  700.000; ENMIN  =  500.000 eV                                                          
   ICORE  =        2    local potential                                                             
   LCOR   =        T    correct aug charges                                                         
   LPAW   =        T    paw PP                                                                      
   EAUG   =  946.768                                                                                
   DEXC   =    0.000                                                                                
   RMAX   =    1.128    core radius for proj-oper                                                   
   RAUG   =    1.300    factor for augmentation sphere                                              
   RDEP   =    1.162    radius for radial grids                                                     
   RDEPT  =    1.088    core radius for aug-charge                                                  
                                                                                                    
   Atomic configuration                                                                             
    4 entries                                                                                       
     n  l   j            E        occ.                                                              
     1  0  0.50      -273.3789   2.0000                                                             
     2  0  0.50       -13.7508   2.0000                                                             
     2  1  0.50        -5.2854   2.0000                                                             
     3  2  1.50        -5.4423   0.0000                                                             
   Description                                                                                      
     l       E           TYP  RCUT    TYP  RCUT                                                     
     0    -13.7508458     23  1.100                                                                 
     0     -8.2022199     23  1.100                                                                 
     1     -5.2854383     23  1.100                                                                 
     1      1.1560700     23  1.100                                                                 
     2     -5.4423304      7  1.100                                                                 
  local pseudopotential read in
  partial core-charges read in
  partial kinetic energy density read in
  atomic valenz-charges read in
  non local Contribution for L=           0  read in
    real space projection operators read in
  non local Contribution for L=           0  read in
    real space projection operators read in
  non local Contribution for L=           1  read in
    real space projection operators read in
  non local Contribution for L=           1  read in
    real space projection operators read in
    PAW grid and wavefunctions read in

   number of l-projection  operators is LMAX  =           4
   number of lm-projection operators is LMMAX =           8

 POTCAR:    PAW_PBE H_h 06Feb2004                 
   VRHFIN =H: ultrasoft test                                                                        
   LEXCH  = PE                                                                                      
   EATOM  =    12.4884 eV,    0.9179 Ry                                                             
                                                                                                    
   TITEL  = PAW_PBE H_h 06Feb2004                                                                   
   LULTRA =        F    use ultrasoft PP ?                                                          
   IUNSCR =        0    unscreen: 0-lin 1-nonlin 2-no                                               
   RPACOR =    0.000    partial core radius                                                         
   POMASS =    1.000; ZVAL   =    1.000    mass and valenz                                          
   RCORE  =    0.800    outmost cutoff radius                                                       
   RWIGS  =    0.700; RWIGS  =    0.370    wigner-seitz radius (au A)                               
   ENMAX  =  700.000; ENMIN  =  350.000 eV                                                          
   RCLOC  =    0.701    cutoff for local pot                                                        
   LCOR   =        T    correct aug charges                                                         
   LPAW   =        T    paw PP                                                                      
   EAUG   = 1000.000                                                                                
   RMAX   =    0.819    core radius for proj-oper                                                   
   RAUG   =    1.000    factor for augmentation sphere                                              
   RDEP   =    0.817    radius for radial grids                                                     
   RDEPT  =    0.817    core radius for aug-charge                                                  
                                                                                                    
   Atomic configuration                                                                             
    2 entries                                                                                       
     n  l   j            E        occ.                                                              
     1  0  0.50        -6.4927   1.0000                                                             
     2  1  0.50        -3.4015   0.0000                                                             
   Description                                                                                      
     l       E           TYP  RCUT    TYP  RCUT                                                     
     0     -6.4927493     23  0.800                                                                 
     0      6.8029130     23  0.800                                                                 
     1     -6.8029130     23  0.800                                                                 
  local pseudopotential read in
  atomic valenz-charges read in
  non local Contribution for L=           0  read in
    real space projection operators read in
  non local Contribution for L=           0  read in
    real space projection operators read in
  non local Contribution for L=           1  read in
    real space projection operators read in
    PAW grid and wavefunctions read in

   number of l-projection  operators is LMAX  =           3
   number of lm-projection operators is LMMAX =           5

 POTCAR:    PAW_PBE O_h 06Feb2004                 
   VRHFIN =O: s2p4                                                                                  
   LEXCH  = PE                                                                                      
   EATOM  =   432.3788 eV,   31.7789 Ry                                                             
                                                                                                    
   TITEL  = PAW_PBE O_h 06Feb2004                                                                   
   LULTRA =        F    use ultrasoft PP ?                                                          
   IUNSCR =        1    unscreen: 0-lin 1-nonlin 2-no                                               
   RPACOR =    0.800    partial core radius                                                         
   POMASS =   16.000; ZVAL   =    6.000    mass and valenz                                          
   RCORE  =    1.100    outmost cutoff radius                                                       
   RWIGS  =    1.400; RWIGS  =    0.741    wigner-seitz radius (au A)                               
   ENMAX  =  700.000; ENMIN  =  500.000 eV                                                          
   ICORE  =        2    local potential                                                             
   LCOR   =        T    correct aug charges                                                         
   LPAW   =        T    paw PP                                                                      
   EAUG   =  888.804                                                                                
   DEXC   =    0.000                                                                                
   RMAX   =    1.128    core radius for proj-oper                                                   
   RAUG   =    1.300    factor for augmentation sphere                                              
   RDEP   =    1.125    radius for radial grids                                                     
   RDEPT  =    1.088    core radius for aug-charge                                                  
                                                                                                    
   Atomic configuration                                                                             
    4 entries                                                                                       
     n  l   j            E        occ.                                                              
     1  0  0.50      -514.6923   2.0000                                                             
     2  0  0.50       -23.9615   2.0000                                                             
     2  1  0.50        -9.0305   4.0000                                                             
     3  2  1.50        -9.5241   0.0000                                                             
   Description                                                                                      
     l       E           TYP  RCUT    TYP  RCUT                                                     
     0    -23.9615319     23  1.100                                                                 
     0    -25.3221145     23  1.100                                                                 
     1     -9.0304911     23  1.100                                                                 
     1     -5.4802209     23  1.100                                                                 
     2     -9.5240782      7  1.100                                                                 
  local pseudopotential read in
  partial core-charges read in
  partial kinetic energy density read in
  atomic valenz-charges read in
  non local Contribution for L=           0  read in
    real space projection operators read in
  non local Contribution for L=           0  read in
    real space projection operators read in
  non local Contribution for L=           1  read in
    real space projection operators read in
  non local Contribution for L=           1  read in
    real space projection operators read in
    PAW grid and wavefunctions read in

   number of l-projection  operators is LMAX  =           4
   number of lm-projection operators is LMMAX =           8

 -----------------------------------------------------------------------------
|                                                                             |
|               ----> ADVICE to this user running VASP <----                  |
|                                                                             |
|     You have a (more or less) 'large supercell' and for larger cells it     |
|     might be more efficient to use real-space projection operators.         |
|     Therefore, try LREAL= Auto in the INCAR file.                           |
|     Mind: For very accurate calculation, you might also keep the            |
|     reciprocal projection scheme (i.e. LREAL=.FALSE.).                      |
|                                                                             |
 -----------------------------------------------------------------------------

  PAW_PBE C_h 06Feb2004                 :
 energy of atom  1       EATOM= -147.1560
 kinetic energy error for atom=    0.0031 (will be added to EATOM!!)
  PAW_PBE H_h 06Feb2004                 :
 energy of atom  2       EATOM=  -12.4884
 kinetic energy error for atom=    0.0006 (will be added to EATOM!!)
  PAW_PBE O_h 06Feb2004                 :
 energy of atom  3       EATOM= -432.3788
 kinetic energy error for atom=    0.0171 (will be added to EATOM!!)


 POSCAR:  C  H  O
  positions in cartesian coordinates
  No initial velocities read in

 METAGGA = SCAN                                        LMAXTAU =  6    LMIXTAU =  F

 exchange correlation table for  LEXCH =        8
   RHO(1)=    0.500       N(1)  =     2000
   RHO(2)=  100.500       N(2)  =     4000

 VTST: version 4.1, (05/19/21)

 CHAIN: initializing optimizer
 
 OPT: Using VASP Dynamics algorithm
 CHAIN: Read ICHAIN            0

 POSCAR:  C  H  O
  positions in cartesian coordinates
  No initial velocities read in



--------------------------------------------------------------------------------------------------------


 ion  position               nearest neighbor table
   1  0.431  0.168  0.447-  29 1.23  11 1.51   3 1.52
   2  0.569  0.668  0.553-  30 1.23  12 1.51   4 1.52
   3  0.518  0.170  0.257-  13 1.10  15 1.10   1 1.52   5 1.54
   4  0.482  0.670  0.743-  14 1.10  16 1.10   2 1.52   6 1.54
   5  0.358  0.215  0.072-  19 1.10  17 1.10   7 1.51   3 1.54
   6  0.642  0.715  0.928-  20 1.10  18 1.10   8 1.51   4 1.54
   7  0.174  0.070  0.060-  31 1.23   5 1.51   9 1.52
   8  0.826  0.570  0.940-  32 1.23   6 1.51  10 1.52
   9  0.101  0.024  0.254-  23 1.10  21 1.10   7 1.52  11 1.54
  10  0.899  0.524  0.746-  24 1.10  22 1.10   8 1.52  12 1.54
  11  0.201  0.169  0.425-  27 1.10  25 1.11   1 1.51   9 1.54
  12  0.799  0.669  0.575-  28 1.10  26 1.11   2 1.51  10 1.54
  13  0.643  0.287  0.271-   3 1.10
  14  0.357  0.787  0.729-   4 1.10
  15  0.585  0.009  0.247-   3 1.10
  16  0.415  0.509  0.753-   4 1.10
  17  0.301  0.381  0.081-   5 1.10
  18  0.699  0.881  0.919-   6 1.10
  19  0.423  0.199  0.936-   5 1.10
  20  0.577  0.699  0.064-   6 1.10
  21  0.137  0.854  0.289-   9 1.10
  22  0.863  0.354  0.711-  10 1.10
  23  0.935  0.039  0.229-   9 1.10
  24  0.065  0.539  0.771-  10 1.10
  25  0.152  0.337  0.392-  11 1.11
  26  0.848  0.837  0.608-  12 1.11
  27  0.156  0.124  0.566-  11 1.10
  28  0.844  0.624  0.434-  12 1.10
  29  0.543  0.165  0.609-   1 1.23
  30  0.457  0.665  0.391-   2 1.23
  31  0.088  0.991  0.904-   7 1.23
  32  0.912  0.491  0.096-   8 1.23

  LATTYP: Found a simple monoclinic cell.
 ALAT       =     6.6500000000
 B/A-ratio  =     0.9338345865
 C/A-ratio  =     1.0330821040
 COS(beta)  =    -0.1705532291
  
  Lattice vectors:
  
 A1 = (   6.6500000000,   0.0000000000,   0.0000000000)
 A2 = (   0.0000000000,   6.2100000000,   0.0000000000)
 A3 = (  -1.1717000000,   0.0000000000,   6.7693400000)


Analysis of symmetry for initial positions (statically):
=====================================================================
 Subroutine PRICEL returns:
 Original cell was already a primitive cell.
 

 Routine SETGRP: Setting up the symmetry group for a 
 simple monoclinic supercell.


 Subroutine GETGRP returns: Found  1 space group operations
 (whereof  1 operations were pure point group operations)
 out of a pool of  4 trial point group operations.


The static configuration has the point symmetry C_1 .


Analysis of symmetry for dynamics (positions and initial velocities):
=====================================================================
 Subroutine PRICEL returns:
 Original cell was already a primitive cell.
 

 Routine SETGRP: Setting up the symmetry group for a 
 simple monoclinic supercell.


 Subroutine GETGRP returns: Found  1 space group operations
 (whereof  1 operations were pure point group operations)
 out of a pool of  4 trial point group operations.


The dynamic configuration has the point symmetry C_1 .


 Subroutine INISYM returns: Found  1 space group operations
 (whereof  1 operations are pure point group operations),
 and found     1 'primitive' translations


----------------------------------------------------------------------------------------

                                     Primitive cell                                     

  volume of cell :     279.5500

  direct lattice vectors                    reciprocal lattice vectors
     6.650000000  0.000000000  0.000000000     0.150375940 -0.000000000  0.026028459
     0.000000000  6.210000000  0.000000000     0.000000000  0.161030596 -0.000000000
    -1.171700000  0.000000000  6.769340000     0.000000000  0.000000000  0.147724889

  length of vectors
     6.650000000  6.210000000  6.869995992     0.152611939  0.161030596  0.147724889

  position of ions in fractional coordinates (direct lattice)
     0.430596934  0.168415645  0.447246499
     0.569402684  0.668411586  0.552747901
     0.517712700  0.169696514  0.257241761
     0.482285808  0.669699730  0.742754295
     0.358387813  0.214728312  0.072203657
     0.641608337  0.714732745  0.927793743
     0.173527056  0.070106752  0.060279888
     0.826469951  0.570110222  0.939720112
     0.101361308  0.024293230  0.253950463
     0.898639441  0.524295920  0.746049862
     0.200830755  0.169104039  0.425214823
     0.799170228  0.669102809  0.574782411
     0.643432873  0.286679458  0.271346732
     0.356565504  0.786682473  0.728646812
     0.585462031  0.008989135  0.247017566
     0.414534072  0.508993625  0.752979240
     0.301332952  0.380995791  0.080687977
     0.698658800  0.881002061  0.919312169
     0.422781436  0.198866956  0.936013107
     0.577215320  0.698865900  0.063984030
     0.137474218  0.853800507  0.289115351
     0.862528711  0.353802491  0.710889771
     0.934555520  0.039434101  0.229452206
     0.065444480  0.539439265  0.770549094
     0.152378381  0.337332307  0.391736502
     0.847620959  0.837331508  0.608262147
     0.155552501  0.123839817  0.566113583
     0.844451209  0.623837803  0.433882794
     0.543007233  0.165396602  0.608989152
     0.456992138  0.665382227  0.391003054
     0.087836692  0.991010865  0.904262631
     0.912153244  0.491007815  0.095737149

  ion indices of the primitive-cell ions
   primitive index   ion index
                 1           1
                 2           2
                 3           3
                 4           4
                 5           5
                 6           6
                 7           7
                 8           8
                 9           9
                10          10
                11          11
                12          12
                13          13
                14          14
                15          15
                16          16
                17          17
                18          18
                19          19
                20          20
                21          21
                22          22
                23          23
                24          24
                25          25
                26          26
                27          27
                28          28
                29          29
                30          30
                31          31
                32          32

----------------------------------------------------------------------------------------



 KPOINTS: auto                                    

Automatic generation of k-mesh.
 Grid dimensions read from file:
 generate k-points for:    4    4    4

 Generating k-lattice:

  Cartesian coordinates                     Fractional coordinates (reciprocal lattice)
     0.037593985 -0.000000000  0.006507115     0.250000000  0.000000000 -0.000000000
     0.000000000  0.040257649 -0.000000000     0.000000000  0.250000000  0.000000000
     0.000000000  0.000000000  0.036931222     0.000000000  0.000000000  0.250000000

  Length of vectors
     0.038152985  0.040257649  0.036931222

  Shift w.r.t. Gamma in fractional coordinates (k-lattice)
     0.000000000  0.000000000  0.000000000

 
 Subroutine IBZKPT returns following result:
 ===========================================
 
 Found     36 irreducible k-points:
 
 Following reciprocal coordinates:
            Coordinates               Weight
  0.000000  0.000000  0.000000      1.000000
  0.250000  0.000000  0.000000      2.000000
  0.500000  0.000000  0.000000      1.000000
  0.000000  0.250000  0.000000      2.000000
  0.250000  0.250000  0.000000      2.000000
 -0.250000  0.250000  0.000000      2.000000
  0.500000  0.250000  0.000000      2.000000
  0.000000  0.500000  0.000000      1.000000
  0.250000  0.500000  0.000000      2.000000
  0.500000  0.500000  0.000000      1.000000
  0.000000  0.000000  0.250000      2.000000
  0.250000  0.000000  0.250000      2.000000
  0.500000  0.000000  0.250000      2.000000
 -0.250000  0.000000  0.250000      2.000000
  0.000000  0.250000  0.250000      2.000000
  0.000000  0.250000 -0.250000      2.000000
  0.250000  0.250000  0.250000      2.000000
 -0.250000  0.250000 -0.250000      2.000000
  0.500000  0.250000  0.250000      2.000000
  0.500000  0.250000 -0.250000      2.000000
 -0.250000  0.250000  0.250000      2.000000
  0.250000  0.250000 -0.250000      2.000000
  0.000000  0.500000  0.250000      2.000000
  0.250000  0.500000  0.250000      2.000000
  0.500000  0.500000  0.250000      2.000000
 -0.250000  0.500000  0.250000      2.000000
  0.000000  0.000000  0.500000      1.000000
  0.250000  0.000000  0.500000      2.000000
  0.500000  0.000000  0.500000      1.000000
  0.000000  0.250000  0.500000      2.000000
  0.250000  0.250000  0.500000      2.000000
 -0.250000  0.250000  0.500000      2.000000
  0.500000  0.250000  0.500000      2.000000
  0.000000  0.500000  0.500000      1.000000
  0.250000  0.500000  0.500000      2.000000
  0.500000  0.500000  0.500000      1.000000
 
 Following cartesian coordinates:
            Coordinates               Weight
  0.000000  0.000000  0.000000      1.000000
  0.037594  0.000000  0.006507      2.000000
  0.075188  0.000000  0.013014      1.000000
  0.000000  0.040258  0.000000      2.000000
  0.037594  0.040258  0.006507      2.000000
 -0.037594  0.040258 -0.006507      2.000000
  0.075188  0.040258  0.013014      2.000000
  0.000000  0.080515  0.000000      1.000000
  0.037594  0.080515  0.006507      2.000000
  0.075188  0.080515  0.013014      1.000000
  0.000000  0.000000  0.036931      2.000000
  0.037594  0.000000  0.043438      2.000000
  0.075188  0.000000  0.049945      2.000000
 -0.037594  0.000000  0.030424      2.000000
  0.000000  0.040258  0.036931      2.000000
  0.000000  0.040258 -0.036931      2.000000
  0.037594  0.040258  0.043438      2.000000
 -0.037594  0.040258 -0.043438      2.000000
  0.075188  0.040258  0.049945      2.000000
  0.075188  0.040258 -0.023917      2.000000
 -0.037594  0.040258  0.030424      2.000000
  0.037594  0.040258 -0.030424      2.000000
  0.000000  0.080515  0.036931      2.000000
  0.037594  0.080515  0.043438      2.000000
  0.075188  0.080515  0.049945      2.000000
 -0.037594  0.080515  0.030424      2.000000
  0.000000  0.000000  0.073862      1.000000
  0.037594  0.000000  0.080370      2.000000
  0.075188  0.000000  0.086877      1.000000
  0.000000  0.040258  0.073862      2.000000
  0.037594  0.040258  0.080370      2.000000
 -0.037594  0.040258  0.067355      2.000000
  0.075188  0.040258  0.086877      2.000000
  0.000000  0.080515  0.073862      1.000000
  0.037594  0.080515  0.080370      2.000000
  0.075188  0.080515  0.086877      1.000000
 


--------------------------------------------------------------------------------------------------------




 Dimension of arrays:
   k-points           NKPTS =     36   k-points in BZ     NKDIM =     36   number of bands    NBANDS=     64
   number of dos      NEDOS =    301   number of ions     NIONS =     32
   non local maximal  LDIM  =      4   non local SUM 2l+1 LMDIM =      8
   total plane-waves  NPLWV = 322560
   max r-space proj   IRMAX =      1   max aug-charges    IRDMAX=   8614
   dimension x,y,z NGX =    70 NGY =   64 NGZ =   72
   dimension x,y,z NGXF=   140 NGYF=  128 NGZF=  144
   support grid    NGXF=   140 NGYF=  128 NGZF=  144
   ions per type =              12  16   4
   NGX,Y,Z   is equivalent  to a cutoff of  17.50, 17.13, 17.42 a.u.
   NGXF,Y,Z  is equivalent  to a cutoff of  35.00, 34.27, 34.85 a.u.

 SYSTEM =  unknown system                          
 POSCAR =   C  H  O                                

 Startparameter for this run:
   NWRITE =      2    write-flag & timer
   PREC   = accura    normal or accurate (medium, high low for compatibility)
   ISTART =      0    job   : 0-new  1-cont  2-samecut
   ICHARG =      2    charge: 1-file 2-atom 10-const
   ISPIN  =      1    spin polarized calculation?
   LNONCOLLINEAR =      F non collinear calculations
   LSORBIT =      F    spin-orbit coupling
   INIWAV =      1    electr: 0-lowe 1-rand  2-diag
   LASPH  =      T    aspherical Exc in radial PAW
 Electronic Relaxation 1
   ENCUT  = 1000.0 eV  73.50 Ry    8.57 a.u.  17.15 16.01 17.71*2*pi/ulx,y,z
   ENINI  = 1000.0     initial cutoff
   ENAUG  = 1000.0 eV  augmentation charge cutoff
   NELM   =    200;   NELMIN=  2; NELMDL= -5     # of ELM steps 
   EDIFF  = 0.1E-06   stopping-criterion for ELM
   LREAL  =      F    real-space projection
   NLSPLINE    = F    spline interpolate recip. space projectors
   LCOMPAT=      F    compatible to vasp.4.4
   GGA_COMPAT  = T    GGA compatible to vasp.4.4-vasp.4.6
   LMAXPAW     = -100 max onsite density
   LMAXMIX     =    2 max onsite mixed and CHGCAR
   VOSKOWN=      0    Vosko Wilk Nusair interpolation
   ROPT   =    0.00000   0.00000   0.00000
 Ionic relaxation
   EDIFFG = 0.1E-05   stopping-criterion for IOM
   NSW    =      0    number of steps for IOM
   NBLOCK =      1;   KBLOCK =      1    inner block; outer block 
   IBRION =     -1    ionic relax: 0-MD 1-quasi-New 2-CG
   NFREE  =      0    steps in history (QN), initial steepest desc. (CG)
   ISIF   =      0    stress and relaxation
   IWAVPR =     10    prediction:  0-non 1-charg 2-wave 3-comb
   ISYM   =      2    0-nonsym 1-usesym 2-fastsym
   LCORR  =      T    Harris-Foulkes like correction to forces

   POTIM  = 0.5000    time-step for ionic-motion
   TEIN   =    0.0    initial temperature
   TEBEG  =    0.0;   TEEND  =   0.0 temperature during run
   SMASS  =  -3.00    Nose mass-parameter (am)
   estimated Nose-frequenzy (Omega)   =  0.10E-29 period in steps = 0.13E+47 mass=  -0.101E-26a.u.
   SCALEE = 1.0000    scale energy and forces
   NPACO  =    256;   APACO  = 10.0  distance and # of slots for P.C.
   PSTRESS=    0.0 pullay stress

  Mass of Ions in am
   POMASS =  12.01  1.00 16.00
  Ionic Valenz
   ZVAL   =   4.00  1.00  6.00
  Atomic Wigner-Seitz radii
   RWIGS  =  -1.00 -1.00 -1.00
  virtual crystal weights 
   VCA    =   1.00  1.00  1.00
   NELECT =      88.0000    total number of electrons
   NUPDOWN=      -1.0000    fix difference up-down

 DOS related values:
   EMIN   =  10.00;   EMAX   =-10.00  energy-range for DOS
   EFERMI =   0.00;   METHOD = LEGACY      
   ISMEAR =     0;   SIGMA  =   0.01  broadening in eV -4-tet -1-fermi 0-gaus

 Electronic relaxation 2 (details)
   IALGO  =     58    algorithm
   LDIAG  =      T    sub-space diagonalisation (order eigenvalues)
   LSUBROT=      F    optimize rotation matrix (better conditioning)
   TURBO    =      0    0=normal 1=particle mesh
   IRESTART =      0    0=no restart 2=restart with 2 vectors
   NREBOOT  =      0    no. of reboots
   NMIN     =      0    reboot dimension
   EREF     =   0.00    reference energy to select bands
   IMIX   =      4    mixing-type and parameters
     AMIX     =   0.40;   BMIX     =  1.00
     AMIX_MAG =   1.60;   BMIX_MAG =  1.00
     AMIN     =   0.10
     WC   =   100.;   INIMIX=   1;  MIXPRE=   1;  MAXMIX= -45

 Intra band minimization:
   WEIMIN = 0.0000     energy-eigenvalue tresh-hold
   EBREAK =  0.39E-09  absolut break condition
   DEPER  =   0.30     relativ break condition  

   TIME   =   0.40     timestep for ELM

  volume/ion in A,a.u.               =       8.74        58.95
  Fermi-wavevector in a.u.,A,eV,Ry     =   1.113651  2.104496 16.874204  1.240219
  Thomas-Fermi vector in A             =   2.250238

 Write flags
   LWAVE        =      F    write WAVECAR
   LDOWNSAMPLE  =      F    k-point downsampling of WAVECAR
   LCHARG       =      T    write CHGCAR
   LVTOT        =      F    write LOCPOT, total local potential
   LVHAR        =      F    write LOCPOT, Hartree potential only
   LELF         =      F    write electronic localiz. function (ELF)
   LORBIT       =      0    0 simple, 1 ext, 2 COOP (PROOUT), +10 PAW based schemes


 Dipole corrections
   LMONO  =      F    monopole corrections only (constant potential shift)
   LDIPOL =      F    correct potential (dipole corrections)
   IDIPOL =      0    1-x, 2-y, 3-z, 4-all directions 
   EPSILON=  1.0000000 bulk dielectric constant

 Exchange correlation treatment:
   GGA     =    --    GGA type
   LEXCH   =     8    internal setting for exchange type
   LIBXC   =     F    Libxc                    
   VOSKOWN =     0    Vosko Wilk Nusair interpolation
   LHFCALC =     F    Hartree Fock is set to
   LHFONE  =     F    Hartree Fock one center treatment
   AEXX    =    0.0000 exact exchange contribution

 vdW DFT:
   LUSE_VDW   =     T    switch on vdW DFT
   IVDW_NL    =     2    kernel type
   LSPIN_VDW  =     F    use spin-polarized vdW DFT
   Zab_VDW    =-.8491    correlation parameter
   PARAM1     =0.1234
   PARAM2     =1.0000
   PARAM3     =0.0000
   -- rVV10 --
   BPARAM     =15.7000
   CPARAM     = 0.0093

 Linear response parameters
   LEPSILON=     F    determine dielectric tensor
   LRPA    =     F    only Hartree local field effects (RPA)
   LNABLA  =     F    use nabla operator in PAW spheres
   LVEL    =     F    velocity operator in full k-point grid
   CSHIFT  =0.1000    complex shift for real part using Kramers Kronig
   OMEGAMAX=  -1.0    maximum frequency
   DEG_THRESHOLD= 0.2000000E-02 threshold for treating states as degnerate
   RTIME   =   -0.100 relaxation time in fs
  (WPLASMAI=    0.000 imaginary part of plasma frequency in eV, 0.658/RTIME)
   DFIELD  = 0.0000000 0.0000000 0.0000000 field for delta impulse in time

  Optional k-point grid parameters
   LKPOINTS_OPT  =     F    use optional k-point grid
   KPOINTS_OPT_MODE=     1    mode for optional k-point grid

 Orbital magnetization related:
   ORBITALMAG=     F  switch on orbital magnetization
   LCHIMAG   =     F  perturbation theory with respect to B field
   DQ        =  0.001000  dq finite difference perturbation B field
   LLRAUG    =     F  two centre corrections for induced B field
   LBONE     =     F  B-component reconstruction in AE one-centre
   LVGVCALC  =     T  calculate vGv susceptibility
   LVGVAPPL  =     F  apply vGv susceptibility instead of pGv for G=0

 Random number generation:
   RANDOM_GENERATOR = DEFAULT
   PCG_SEED         = not used


--------------------------------------------------------------------------------------------------------


 Static calculation
 charge density and potential will be updated during run
 non-spin polarized calculation
 Conjugate gradient for all bands (Freysoldt, et al. PRB 79, 241103 (2009))
 preconditioned conjugated gradient                                        
 perform sub-space diagonalisation
    before iterative eigenvector-optimisation
 modified Broyden-mixing scheme, WC =      100.0
 initial mixing is a Kerker type mixing with AMIX =  0.4000 and BMIX =      1.0000
 Hartree-type preconditioning will be used
 using additional bands           20
 reciprocal scheme for non local part
 use partial core corrections
 no Harris-corrections to forces 
 use gradient corrections 
 use of overlap-Matrix (Vanderbilt PP)
 Gauss-broadening in eV      SIGMA  =   0.01


--------------------------------------------------------------------------------------------------------


  energy-cutoff  :     1000.00
  volume of cell :      279.55
      direct lattice vectors                 reciprocal lattice vectors
     6.650000000  0.000000000  0.000000000     0.150375940 -0.000000000  0.026028459
     0.000000000  6.210000000  0.000000000     0.000000000  0.161030596 -0.000000000
    -1.171700000  0.000000000  6.769340000     0.000000000  0.000000000  0.147724889

  length of vectors
     6.650000000  6.210000000  6.869995992     0.152611939  0.161030596  0.147724889



 k-points in units of 2pi/SCALE and weight: auto                                    
   0.00000000  0.00000000  0.00000000       0.016
   0.03759398  0.00000000  0.00650711       0.031
   0.07518797  0.00000000  0.01301423       0.016
   0.00000000  0.04025765  0.00000000       0.031
   0.03759398  0.04025765  0.00650711       0.031
  -0.03759398  0.04025765 -0.00650711       0.031
   0.07518797  0.04025765  0.01301423       0.031
   0.00000000  0.08051530  0.00000000       0.016
   0.03759398  0.08051530  0.00650711       0.031
   0.07518797  0.08051530  0.01301423       0.016
   0.00000000  0.00000000  0.03693122       0.031
   0.03759398  0.00000000  0.04343834       0.031
   0.07518797  0.00000000  0.04994545       0.031
  -0.03759398  0.00000000  0.03042411       0.031
   0.00000000  0.04025765  0.03693122       0.031
   0.00000000  0.04025765 -0.03693122       0.031
   0.03759398  0.04025765  0.04343834       0.031
  -0.03759398  0.04025765 -0.04343834       0.031
   0.07518797  0.04025765  0.04994545       0.031
   0.07518797  0.04025765 -0.02391699       0.031
  -0.03759398  0.04025765  0.03042411       0.031
   0.03759398  0.04025765 -0.03042411       0.031
   0.00000000  0.08051530  0.03693122       0.031
   0.03759398  0.08051530  0.04343834       0.031
   0.07518797  0.08051530  0.04994545       0.031
  -0.03759398  0.08051530  0.03042411       0.031
   0.00000000  0.00000000  0.07386244       0.016
   0.03759398  0.00000000  0.08036956       0.031
   0.07518797  0.00000000  0.08687667       0.016
   0.00000000  0.04025765  0.07386244       0.031
   0.03759398  0.04025765  0.08036956       0.031
  -0.03759398  0.04025765  0.06735533       0.031
   0.07518797  0.04025765  0.08687667       0.031
   0.00000000  0.08051530  0.07386244       0.016
   0.03759398  0.08051530  0.08036956       0.031
   0.07518797  0.08051530  0.08687667       0.016

 k-points in reciprocal lattice and weights: auto                                    
   0.00000000  0.00000000  0.00000000       0.016
   0.25000000  0.00000000  0.00000000       0.031
   0.50000000  0.00000000  0.00000000       0.016
   0.00000000  0.25000000  0.00000000       0.031
   0.25000000  0.25000000  0.00000000       0.031
  -0.25000000  0.25000000  0.00000000       0.031
   0.50000000  0.25000000  0.00000000       0.031
   0.00000000  0.50000000  0.00000000       0.016
   0.25000000  0.50000000  0.00000000       0.031
   0.50000000  0.50000000  0.00000000       0.016
   0.00000000  0.00000000  0.25000000       0.031
   0.25000000  0.00000000  0.25000000       0.031
   0.50000000  0.00000000  0.25000000       0.031
  -0.25000000  0.00000000  0.25000000       0.031
   0.00000000  0.25000000  0.25000000       0.031
   0.00000000  0.25000000 -0.25000000       0.031
   0.25000000  0.25000000  0.25000000       0.031
  -0.25000000  0.25000000 -0.25000000       0.031
   0.50000000  0.25000000  0.25000000       0.031
   0.50000000  0.25000000 -0.25000000       0.031
  -0.25000000  0.25000000  0.25000000       0.031
   0.25000000  0.25000000 -0.25000000       0.031
   0.00000000  0.50000000  0.25000000       0.031
   0.25000000  0.50000000  0.25000000       0.031
   0.50000000  0.50000000  0.25000000       0.031
  -0.25000000  0.50000000  0.25000000       0.031
   0.00000000  0.00000000  0.50000000       0.016
   0.25000000  0.00000000  0.50000000       0.031
   0.50000000  0.00000000  0.50000000       0.016
   0.00000000  0.25000000  0.50000000       0.031
   0.25000000  0.25000000  0.50000000       0.031
  -0.25000000  0.25000000  0.50000000       0.031
   0.50000000  0.25000000  0.50000000       0.031
   0.00000000  0.50000000  0.50000000       0.016
   0.25000000  0.50000000  0.50000000       0.031
   0.50000000  0.50000000  0.50000000       0.016

 position of ions in fractional coordinates (direct lattice) 
   0.43059693  0.16841564  0.44724650
   0.56940268  0.66841159  0.55274790
   0.51771270  0.16969651  0.25724176
   0.48228581  0.66969973  0.74275429
   0.35838781  0.21472831  0.07220366
   0.64160834  0.71473275  0.92779374
   0.17352706  0.07010675  0.06027989
   0.82646995  0.57011022  0.93972011
   0.10136131  0.02429323  0.25395046
   0.89863944  0.52429592  0.74604986
   0.20083075  0.16910404  0.42521482
   0.79917023  0.66910281  0.57478241
   0.64343287  0.28667946  0.27134673
   0.35656550  0.78668247  0.72864681
   0.58546203  0.00898913  0.24701757
   0.41453407  0.50899363  0.75297924
   0.30133295  0.38099579  0.08068798
   0.69865880  0.88100206  0.91931217
   0.42278144  0.19886696  0.93601311
   0.57721532  0.69886590  0.06398403
   0.13747422  0.85380051  0.28911535
   0.86252871  0.35380249  0.71088977
   0.93455552  0.03943410  0.22945221
   0.06544448  0.53943927  0.77054909
   0.15237838  0.33733231  0.39173650
   0.84762096  0.83733151  0.60826215
   0.15555250  0.12383982  0.56611358
   0.84445121  0.62383780  0.43388279
   0.54300723  0.16539660  0.60898915
   0.45699214  0.66538223  0.39100305
   0.08783669  0.99101087  0.90426263
   0.91215324  0.49100782  0.09573715

 position of ions in cartesian coordinates  (Angst):
   2.33943089  1.04586116  3.02756362
   3.13887313  4.15083595  3.74173847
   3.14137928  1.05381535  1.74135694
   2.33691542  4.15883532  5.02795636
   2.29867793  1.33346282  0.48877110
   3.17959951  4.43849035  6.28055129
   1.08332498  0.43536293  0.40805506
   4.39495512  3.54038448  6.36128494
   0.37649894  0.15086096  1.71907703
   5.10180566  3.25587766  5.05026518
   0.83730031  1.05013608  2.87842371
   4.64100946  4.15512845  3.89089757
   3.96089164  1.78027943  1.83683828
   1.51740513  4.88529816  4.93245801
   3.60389202  0.05582253  1.67214589
   1.87438580  3.16085041  5.09717249
   1.90932203  2.36598386  0.54620435
   3.56892295  5.47102280  6.22313664
   1.71476999  1.23496380  6.33619097
   3.76351179  4.33995724  0.43312965
   0.57544710  5.30210115  1.95712011
   4.90286638  2.19711347  4.81225456
   5.94594506  0.24488577  1.55324000
  -0.46764658  3.34991784  5.21610880
   0.55431857  2.09483363  2.65179757
   4.92397862  5.19982866  4.11753328
   0.37110885  0.76904526  3.83221532
   5.10722007  3.87403276  2.93710016
   2.89744551  1.02711290  4.12245462
   2.58085944  4.13202363  2.64683262
  -0.47541052  6.15417747  6.12126120
   5.95364385  3.04915853  0.64807731



--------------------------------------------------------------------------------------------------------


 k-point   1 :   0.0000 0.0000 0.0000  plane waves:   20055
 k-point   2 :   0.2500 0.0000 0.0000  plane waves:   20080
 k-point   3 :   0.5000 0.0000 0.0000  plane waves:   20022
 k-point   4 :   0.0000 0.2500 0.0000  plane waves:   20078
 k-point   5 :   0.2500 0.2500 0.0000  plane waves:   20073
 k-point   6 :  -0.2500 0.2500 0.0000  plane waves:   20073
 k-point   7 :   0.5000 0.2500 0.0000  plane waves:   20092
 k-point   8 :   0.0000 0.5000 0.0000  plane waves:   20108
 k-point   9 :   0.2500 0.5000 0.0000  plane waves:   20100
 k-point  10 :   0.5000 0.5000 0.0000  plane waves:   20112
 k-point  11 :   0.0000 0.0000 0.2500  plane waves:   20054
 k-point  12 :   0.2500 0.0000 0.2500  plane waves:   20057
 k-point  13 :   0.5000 0.0000 0.2500  plane waves:   20056
 k-point  14 :  -0.2500 0.0000 0.2500  plane waves:   20077
 k-point  15 :   0.0000 0.2500 0.2500  plane waves:   20068
 k-point  16 :   0.0000 0.2500-0.2500  plane waves:   20068
 k-point  17 :   0.2500 0.2500 0.2500  plane waves:   20069
 k-point  18 :  -0.2500 0.2500-0.2500  plane waves:   20069
 k-point  19 :   0.5000 0.2500 0.2500  plane waves:   20092
 k-point  20 :   0.5000 0.2500-0.2500  plane waves:   20092
 k-point  21 :  -0.2500 0.2500 0.2500  plane waves:   20079
 k-point  22 :   0.2500 0.2500-0.2500  plane waves:   20079
 k-point  23 :   0.0000 0.5000 0.2500  plane waves:   20068
 k-point  24 :   0.2500 0.5000 0.2500  plane waves:   20082
 k-point  25 :   0.5000 0.5000 0.2500  plane waves:   20104
 k-point  26 :  -0.2500 0.5000 0.2500  plane waves:   20068
 k-point  27 :   0.0000 0.0000 0.5000  plane waves:   20064
 k-point  28 :   0.2500 0.0000 0.5000  plane waves:   20066
 k-point  29 :   0.5000 0.0000 0.5000  plane waves:   20074
 k-point  30 :   0.0000 0.2500 0.5000  plane waves:   20048
 k-point  31 :   0.2500 0.2500 0.5000  plane waves:   20065
 k-point  32 :  -0.2500 0.2500 0.5000  plane waves:   20065
 k-point  33 :   0.5000 0.2500 0.5000  plane waves:   20094
 k-point  34 :   0.0000 0.5000 0.5000  plane waves:   20072
 k-point  35 :   0.2500 0.5000 0.5000  plane waves:   20056
 k-point  36 :   0.5000 0.5000 0.5000  plane waves:   20088

 maximum and minimum number of plane-waves per node :       648      600

 maximum number of plane-waves:     20112
 maximum index in each direction: 
   IXMAX=   17   IYMAX=   16   IZMAX=   17
   IXMIN=  -17   IYMIN=  -16   IZMIN=  -18


 parallel 3D FFT for wavefunctions:
    minimum data exchange during FFTs selected (reduces bandwidth)
 parallel 3D FFT for charge:
    minimum data exchange during FFTs selected (reduces bandwidth)


 total amount of memory used by VASP MPI-rank0    57624. kBytes
=======================================================================

   base      :      30000. kBytes
   nonl-proj :       4691. kBytes
   fftplans  :       1556. kBytes
   grid      :       3680. kBytes
   one-center:          3. kBytes
   wavefun   :      17694. kBytes

     INWAV:  cpu time      0.0000: real time      0.0000
 Broyden mixing: mesh for mixing (old mesh)
   NGX = 35   NGY = 33   NGZ = 35
  (NGX  =140   NGY  =128   NGZ  =144)
  gives a total of  40425 points

 initial charge density was supplied:
 charge density of overlapping atoms calculated
 number of electron      88.0000000 magnetization 
 keeping initial charge density in first step


--------------------------------------------------------------------------------------------------------


 Maximum index for augmentation-charges          515 (set IRDMAX)


--------------------------------------------------------------------------------------------------------


 First call to EWALD:  gamma=   0.271
 Maximum number of real-space cells 3x 3x 3
 Maximum number of reciprocal cells 3x 3x 3

    FEWALD:  cpu time      0.0036: real time      0.0036


--------------------------------------- Ionic step        1  -------------------------------------------




--------------------------------------- Iteration      1(   1)  ---------------------------------------


    POTLOK:  cpu time      0.9107: real time      0.9119
    SETDIJ:  cpu time      0.3058: real time      0.3063
    TRIAL :  cpu time      2.6692: real time      2.6730
    CORREC:  cpu time      0.0015: real time      0.0015
    --------------------------------------------
      LOOP:  cpu time      3.9003: real time      3.9060

 eigenvalue-minimisations  :  4608
 total energy-change (2. order) : 0.6282053E+03  (-0.6705719E+04)
 number of electron      88.0000000 magnetization 
 augmentation part       88.0000000 magnetization 

 Free energy of the ion-electron system (eV)
  ---------------------------------------------------
  alpha Z        PSCENC =        83.55220166
  Ewald energy   TEWEN  =     -1830.01301394
  -Hartree energ DENC   =     -1561.99897331
  -exchange      EXHF   =         0.00000000
  -V(xc)+E(xc)   XCENC  =       298.88052620
  PAW double counting   =      2703.92513702    -2683.34004209
  entropy T*S    EENTRO =        -0.00024111
  eigenvalues    EBANDS =       -77.88670916
  atomic energy  EATOM  =      3695.08646324
  ---------------------------------------------------
  free energy    TOTEN  =       628.20534851 eV

  energy without entropy =      628.20558962  energy(sigma->0) =      628.20546906


--------------------------------------------------------------------------------------------------------




--------------------------------------- Iteration      1(   2)  ---------------------------------------


    TRIAL :  cpu time      3.1107: real time      3.1123
    CORREC:  cpu time      0.0003: real time      0.0003
    --------------------------------------------
      LOOP:  cpu time      3.1229: real time      3.1413

 eigenvalue-minimisations  :  5936
 total energy-change (2. order) :-0.7619159E+03  (-0.7241104E+03)
 number of electron      88.0000000 magnetization 
 augmentation part       88.0000000 magnetization 

 Free energy of the ion-electron system (eV)
  ---------------------------------------------------
  alpha Z        PSCENC =        83.55220166
  Ewald energy   TEWEN  =     -1830.01301394
  -Hartree energ DENC   =     -1561.99897331
  -exchange      EXHF   =         0.00000000
  -V(xc)+E(xc)   XCENC  =       298.88052620
  PAW double counting   =      2703.92513702    -2683.34004209
  entropy T*S    EENTRO =        -0.00000000
  eigenvalues    EBANDS =      -839.80287639
  atomic energy  EATOM  =      3695.08646324
  ---------------------------------------------------
  free energy    TOTEN  =      -133.71057761 eV

  energy without entropy =     -133.71057761  energy(sigma->0) =     -133.71057761


--------------------------------------------------------------------------------------------------------




--------------------------------------- Iteration      1(   3)  ---------------------------------------


    TRIAL :  cpu time      2.9868: real time      2.9883
    CORREC:  cpu time      0.0004: real time      0.0004
    --------------------------------------------
      LOOP:  cpu time      3.0016: real time      3.0184

 eigenvalue-minimisations  :  5696
 total energy-change (2. order) :-0.1127500E+03  (-0.1112679E+03)
 number of electron      88.0000000 magnetization 
 augmentation part       88.0000000 magnetization 

 Free energy of the ion-electron system (eV)
  ---------------------------------------------------
  alpha Z        PSCENC =        83.55220166
  Ewald energy   TEWEN  =     -1830.01301394
  -Hartree energ DENC   =     -1561.99897331
  -exchange      EXHF   =         0.00000000
  -V(xc)+E(xc)   XCENC  =       298.88052620
  PAW double counting   =      2703.92513702    -2683.34004209
  entropy T*S    EENTRO =        -0.00000000
  eigenvalues    EBANDS =      -952.55282850
  atomic energy  EATOM  =      3695.08646324
  ---------------------------------------------------
  free energy    TOTEN  =      -246.46052972 eV

  energy without entropy =     -246.46052972  energy(sigma->0) =     -246.46052972


--------------------------------------------------------------------------------------------------------




--------------------------------------- Iteration      1(   4)  ---------------------------------------


    TRIAL :  cpu time      3.0595: real time      3.0612
    CORREC:  cpu time      0.0003: real time      0.0003
    --------------------------------------------
      LOOP:  cpu time      3.0890: real time      3.0908

 eigenvalue-minimisations  :  5840
 total energy-change (2. order) :-0.3642556E+01  (-0.3626029E+01)
 number of electron      88.0000000 magnetization 
 augmentation part       88.0000000 magnetization 

 Free energy of the ion-electron system (eV)
  ---------------------------------------------------
  alpha Z        PSCENC =        83.55220166
  Ewald energy   TEWEN  =     -1830.01301394
  -Hartree energ DENC   =     -1561.99897331
  -exchange      EXHF   =         0.00000000
  -V(xc)+E(xc)   XCENC  =       298.88052620
  PAW double counting   =      2703.92513702    -2683.34004209
  entropy T*S    EENTRO =        -0.00000000
  eigenvalues    EBANDS =      -956.19538414
  atomic energy  EATOM  =      3695.08646324
  ---------------------------------------------------
  free energy    TOTEN  =      -250.10308536 eV

  energy without entropy =     -250.10308536  energy(sigma->0) =     -250.10308536


--------------------------------------------------------------------------------------------------------




--------------------------------------- Iteration      1(   5)  ---------------------------------------


    TRIAL :  cpu time      3.1359: real time      3.1375
    CORREC:  cpu time      0.0003: real time      0.0003
    CHARGE:  cpu time      0.2044: real time      0.2058
    --------------------------------------------
      LOOP:  cpu time      3.3554: real time      3.3750

 eigenvalue-minimisations  :  6168
 total energy-change (2. order) :-0.1212927E+00  (-0.1212021E+00)
 number of electron      88.0000000 magnetization 
 augmentation part        0.1768798 magnetization 

 Free energy of the ion-electron system (eV)
  ---------------------------------------------------
  alpha Z        PSCENC =        83.55220166
  Ewald energy   TEWEN  =     -1830.01301394
  -Hartree energ DENC   =     -1561.99897331
  -exchange      EXHF   =         0.00000000
  -V(xc)+E(xc)   XCENC  =       298.88052620
  PAW double counting   =      2703.92513702    -2683.34004209
  entropy T*S    EENTRO =        -0.00000000
  eigenvalues    EBANDS =      -956.31667687
  atomic energy  EATOM  =      3695.08646324
  ---------------------------------------------------
  free energy    TOTEN  =      -250.22437809 eV

  energy without entropy =     -250.22437809  energy(sigma->0) =     -250.22437809


--------------------------------------------------------------------------------------------------------




--------------------------------------- Iteration      1(   6)  ---------------------------------------


    POTLOK:  cpu time      0.7992: real time      0.7992
    SETDIJ:  cpu time      0.2983: real time      0.2986
    TRIAL :  cpu time      2.0711: real time      2.0739
    CORREC:  cpu time      1.8901: real time      1.8922
    CHARGE:  cpu time      0.2755: real time      0.2756
    --------------------------------------------
      LOOP:  cpu time      5.3476: real time      5.3680

 eigenvalue-minimisations  :     0
 total energy-change (2. order) : 0.5278107E+02  (-0.1054686E+02)
 number of electron      88.0000000 magnetization 
 augmentation part        0.1096892 magnetization 

 Free energy of the ion-electron system (eV)
  ---------------------------------------------------
  alpha Z        PSCENC =        83.55220166
  Ewald energy   TEWEN  =     -1830.01301394
  -Hartree energ DENC   =     -1978.57773085
  -exchange      EXHF   =         0.00000000
  -V(xc)+E(xc)   XCENC  =       338.62773666
  PAW double counting   =     40254.18046803   -40237.00811118
  entropy T*S    EENTRO =        -0.00000000
  eigenvalues    EBANDS =      -523.29132401
  atomic energy  EATOM  =      3695.08646324
  ---------------------------------------------------
  free energy    TOTEN  =      -197.44331040 eV

  energy without entropy =     -197.44331040  energy(sigma->0) =     -197.44331040


--------------------------------------------------------------------------------------------------------




--------------------------------------- Iteration      1(   7)  ---------------------------------------


    POTLOK:  cpu time      0.7714: real time      0.7717
    SETDIJ:  cpu time      0.3020: real time      0.3021
    TRIAL :  cpu time      2.0336: real time      2.0346
    CORREC:  cpu time      1.9167: real time      1.9177
    CHARGE:  cpu time      0.1929: real time      0.1929
    --------------------------------------------
      LOOP:  cpu time      5.2292: real time      5.2481

 eigenvalue-minimisations  :     0
 total energy-change (2. order) :-0.1054974E+02  (-0.1498763E+01)
 number of electron      88.0000000 magnetization 
 augmentation part        0.0941868 magnetization 

 Free energy of the ion-electron system (eV)
  ---------------------------------------------------
  alpha Z        PSCENC =        83.55220166
  Ewald energy   TEWEN  =     -1830.01301394
  -Hartree energ DENC   =     -1798.86870897
  -exchange      EXHF   =         0.00000000
  -V(xc)+E(xc)   XCENC  =       324.49841953
  PAW double counting   =     46509.29005584   -46489.94072969
  entropy T*S    EENTRO =        -0.00000000
  eigenvalues    EBANDS =      -701.59774047
  atomic energy  EATOM  =      3695.08646324
  ---------------------------------------------------
  free energy    TOTEN  =      -207.99305280 eV

  energy without entropy =     -207.99305280  energy(sigma->0) =     -207.99305280


--------------------------------------------------------------------------------------------------------




--------------------------------------- Iteration      1(   8)  ---------------------------------------


    POTLOK:  cpu time      0.7702: real time      0.7706
    SETDIJ:  cpu time      0.3295: real time      0.3295
    TRIAL :  cpu time      2.0462: real time      2.0472
    CORREC:  cpu time      1.8793: real time      1.8803
    CHARGE:  cpu time      0.1924: real time      0.1924
    --------------------------------------------
      LOOP:  cpu time      5.2297: real time      5.2503

 eigenvalue-minimisations  :     0
 total energy-change (2. order) :-0.1506805E+01  (-0.5570270E+00)
 number of electron      88.0000000 magnetization 
 augmentation part        0.1052286 magnetization 

 Free energy of the ion-electron system (eV)
  ---------------------------------------------------
  alpha Z        PSCENC =        83.55220166
  Ewald energy   TEWEN  =     -1830.01301394
  -Hartree energ DENC   =     -1798.77472497
  -exchange      EXHF   =         0.00000000
  -V(xc)+E(xc)   XCENC  =       324.45867411
  PAW double counting   =     47755.45909165   -47736.01477182
  entropy T*S    EENTRO =        -0.00000000
  eigenvalues    EBANDS =      -703.25377748
  atomic energy  EATOM  =      3695.08646324
  ---------------------------------------------------
  free energy    TOTEN  =      -209.49985755 eV

  energy without entropy =     -209.49985755  energy(sigma->0) =     -209.49985755


--------------------------------------------------------------------------------------------------------




--------------------------------------- Iteration      1(   9)  ---------------------------------------


    POTLOK:  cpu time      0.7668: real time      0.7673
    SETDIJ:  cpu time      0.3038: real time      0.3042
    TRIAL :  cpu time      2.0325: real time      2.0336
    CORREC:  cpu time      1.8798: real time      1.8802
    CHARGE:  cpu time      0.1910: real time      0.1915
    --------------------------------------------
      LOOP:  cpu time      5.1868: real time      5.2071

 eigenvalue-minimisations  :     0
 total energy-change (2. order) :-0.5567683E+00  (-0.1579924E+00)
 number of electron      88.0000000 magnetization 
 augmentation part        0.1091832 magnetization 

 Free energy of the ion-electron system (eV)
  ---------------------------------------------------
  alpha Z        PSCENC =        83.55220166
  Ewald energy   TEWEN  =     -1830.01301394
  -Hartree energ DENC   =     -1794.77814055
  -exchange      EXHF   =         0.00000000
  -V(xc)+E(xc)   XCENC  =       324.23651771
  PAW double counting   =     49514.61782908   -49495.12131121
  entropy T*S    EENTRO =        -0.00000000
  eigenvalues    EBANDS =      -707.63717181
  atomic energy  EATOM  =      3695.08646324
  ---------------------------------------------------
  free energy    TOTEN  =      -210.05662583 eV

  energy without entropy =     -210.05662583  energy(sigma->0) =     -210.05662583


--------------------------------------------------------------------------------------------------------




--------------------------------------- Iteration      1(  10)  ---------------------------------------


    POTLOK:  cpu time      0.7668: real time      0.7669
    SETDIJ:  cpu time      0.3029: real time      0.3033
    TRIAL :  cpu time      2.0943: real time      2.0953
    CORREC:  cpu time      1.8838: real time      1.8849
    CHARGE:  cpu time      0.1914: real time      0.1914
    --------------------------------------------
      LOOP:  cpu time      5.2677: real time      5.2706

 eigenvalue-minimisations  :     0
 total energy-change (2. order) :-0.1577939E+00  (-0.4151910E-01)
 number of electron      88.0000000 magnetization 
 augmentation part        0.1108731 magnetization 

 Free energy of the ion-electron system (eV)
  ---------------------------------------------------
  alpha Z        PSCENC =        83.55220166
  Ewald energy   TEWEN  =     -1830.01301394
  -Hartree energ DENC   =     -1788.20762673
  -exchange      EXHF   =         0.00000000
  -V(xc)+E(xc)   XCENC  =       323.88487696
  PAW double counting   =     49202.49841746   -49182.99125020
  entropy T*S    EENTRO =        -0.00000000
  eigenvalues    EBANDS =      -714.02448814
  atomic energy  EATOM  =      3695.08646324
  ---------------------------------------------------
  free energy    TOTEN  =      -210.21441968 eV

  energy without entropy =     -210.21441968  energy(sigma->0) =     -210.21441968


--------------------------------------------------------------------------------------------------------




--------------------------------------- Iteration      1(  11)  ---------------------------------------


    POTLOK:  cpu time      0.7673: real time      0.7680
    SETDIJ:  cpu time      0.3034: real time      0.3034
    TRIAL :  cpu time      2.1448: real time      2.1457
    CORREC:  cpu time      1.9038: real time      1.9047
    CHARGE:  cpu time      0.1959: real time      0.1959
    --------------------------------------------
      LOOP:  cpu time      5.3289: real time      5.3475

 eigenvalue-minimisations  :     0
 total energy-change (2. order) :-0.4146421E-01  (-0.9854701E-02)
 number of electron      88.0000000 magnetization 
 augmentation part        0.1091149 magnetization 

 Free energy of the ion-electron system (eV)
  ---------------------------------------------------
  alpha Z        PSCENC =        83.55220166
  Ewald energy   TEWEN  =     -1830.01301394
  -Hartree energ DENC   =     -1787.86053793
  -exchange      EXHF   =         0.00000000
  -V(xc)+E(xc)   XCENC  =       323.84431085
  PAW double counting   =     48637.09759378   -48617.63049206
  entropy T*S    EENTRO =        -0.00000000
  eigenvalues    EBANDS =      -714.33240948
  atomic energy  EATOM  =      3695.08646324
  ---------------------------------------------------
  free energy    TOTEN  =      -210.25588389 eV

  energy without entropy =     -210.25588389  energy(sigma->0) =     -210.25588389


--------------------------------------------------------------------------------------------------------




--------------------------------------- Iteration      1(  12)  ---------------------------------------


    POTLOK:  cpu time      0.7755: real time      0.7760
    SETDIJ:  cpu time      0.3035: real time      0.3035
    TRIAL :  cpu time      2.0400: real time      2.0410
    CORREC:  cpu time      1.8764: real time      1.8774
    CHARGE:  cpu time      0.1914: real time      0.1914
    --------------------------------------------
      LOOP:  cpu time      5.2009: real time      5.2192

 eigenvalue-minimisations  :     0
 total energy-change (2. order) :-0.9901412E-02  (-0.2522879E-02)
 number of electron      88.0000000 magnetization 
 augmentation part        0.1090971 magnetization 

 Free energy of the ion-electron system (eV)
  ---------------------------------------------------
  alpha Z        PSCENC =        83.55220166
  Ewald energy   TEWEN  =     -1830.01301394
  -Hartree energ DENC   =     -1787.18458445
  -exchange      EXHF   =         0.00000000
  -V(xc)+E(xc)   XCENC  =       323.73725734
  PAW double counting   =     48474.64783953   -48455.17382128
  entropy T*S    EENTRO =        -0.00000000
  eigenvalues    EBANDS =      -714.91812741
  atomic energy  EATOM  =      3695.08646324
  ---------------------------------------------------
  free energy    TOTEN  =      -210.26578530 eV

  energy without entropy =     -210.26578530  energy(sigma->0) =     -210.26578530


--------------------------------------------------------------------------------------------------------




--------------------------------------- Iteration      1(  13)  ---------------------------------------


    POTLOK:  cpu time      0.7701: real time      0.7702
    SETDIJ:  cpu time      0.3026: real time      0.3030
    TRIAL :  cpu time      2.0425: real time      2.0436
    CORREC:  cpu time      1.9005: real time      1.9015
    CHARGE:  cpu time      0.1962: real time      0.1962
    --------------------------------------------
      LOOP:  cpu time      5.2319: real time      5.2433

 eigenvalue-minimisations  :     0
 total energy-change (2. order) :-0.2509336E-02  (-0.6519995E-03)
 number of electron      88.0000000 magnetization 
 augmentation part        0.1092100 magnetization 

 Free energy of the ion-electron system (eV)
  ---------------------------------------------------
  alpha Z        PSCENC =        83.55220166
  Ewald energy   TEWEN  =     -1830.01301394
  -Hartree energ DENC   =     -1787.36860746
  -exchange      EXHF   =         0.00000000
  -V(xc)+E(xc)   XCENC  =       323.74469917
  PAW double counting   =     48348.54966687   -48329.08108156
  entropy T*S    EENTRO =        -0.00000000
  eigenvalues    EBANDS =      -714.73862261
  atomic energy  EATOM  =      3695.08646324
  ---------------------------------------------------
  free energy    TOTEN  =      -210.26829463 eV

  energy without entropy =     -210.26829463  energy(sigma->0) =     -210.26829463


--------------------------------------------------------------------------------------------------------




--------------------------------------- Iteration      1(  14)  ---------------------------------------


    POTLOK:  cpu time      0.7704: real time      0.7708
    SETDIJ:  cpu time      0.3013: real time      0.3013
    TRIAL :  cpu time      2.0412: real time      2.0423
    CORREC:  cpu time      1.9379: real time      1.9389
    CHARGE:  cpu time      0.1911: real time      0.1911
    --------------------------------------------
      LOOP:  cpu time      5.2552: real time      5.2745

 eigenvalue-minimisations  :     0
 total energy-change (2. order) :-0.6582643E-03  (-0.2122288E-03)
 number of electron      88.0000000 magnetization 
 augmentation part        0.1095018 magnetization 

 Free energy of the ion-electron system (eV)
  ---------------------------------------------------
  alpha Z        PSCENC =        83.55220166
  Ewald energy   TEWEN  =     -1830.01301394
  -Hartree energ DENC   =     -1787.08371665
  -exchange      EXHF   =         0.00000000
  -V(xc)+E(xc)   XCENC  =       323.71968461
  PAW double counting   =     48303.16203350   -48283.69104820
  entropy T*S    EENTRO =        -0.00000000
  eigenvalues    EBANDS =      -715.00155711
  atomic energy  EATOM  =      3695.08646324
  ---------------------------------------------------
  free energy    TOTEN  =      -210.26895290 eV

  energy without entropy =     -210.26895290  energy(sigma->0) =     -210.26895290


--------------------------------------------------------------------------------------------------------




--------------------------------------- Iteration      1(  15)  ---------------------------------------


    POTLOK:  cpu time      0.7751: real time      0.7756
    SETDIJ:  cpu time      0.2962: real time      0.2962
    TRIAL :  cpu time      2.0399: real time      2.0409
    CORREC:  cpu time      1.8760: real time      1.8770
    CHARGE:  cpu time      0.1925: real time      0.1925
    --------------------------------------------
      LOOP:  cpu time      5.1934: real time      5.2125

 eigenvalue-minimisations  :     0
 total energy-change (2. order) :-0.2066324E-03  (-0.5683467E-04)
 number of electron      88.0000000 magnetization 
 augmentation part        0.1095045 magnetization 

 Free energy of the ion-electron system (eV)
  ---------------------------------------------------
  alpha Z        PSCENC =        83.55220166
  Ewald energy   TEWEN  =     -1830.01301394
  -Hartree energ DENC   =     -1787.35867561
  -exchange      EXHF   =         0.00000000
  -V(xc)+E(xc)   XCENC  =       323.73662465
  PAW double counting   =     48259.80650105   -48240.33832652
  entropy T*S    EENTRO =        -0.00000000
  eigenvalues    EBANDS =      -714.74093406
  atomic energy  EATOM  =      3695.08646324
  ---------------------------------------------------
  free energy    TOTEN  =      -210.26915953 eV

  energy without entropy =     -210.26915953  energy(sigma->0) =     -210.26915953


--------------------------------------------------------------------------------------------------------




--------------------------------------- Iteration      1(  16)  ---------------------------------------


    POTLOK:  cpu time      0.7709: real time      0.7714
    SETDIJ:  cpu time      0.3000: real time      0.3000
    TRIAL :  cpu time      2.0382: real time      2.0391
    CORREC:  cpu time      1.8846: real time      1.8856
    CHARGE:  cpu time      0.2325: real time      0.2326
    --------------------------------------------
      LOOP:  cpu time      5.2381: real time      5.2582

 eigenvalue-minimisations  :     0
 total energy-change (2. order) :-0.5910413E-04  (-0.2208760E-04)
 number of electron      88.0000000 magnetization 
 augmentation part        0.1095664 magnetization 

 Free energy of the ion-electron system (eV)
  ---------------------------------------------------
  alpha Z        PSCENC =        83.55220166
  Ewald energy   TEWEN  =     -1830.01301394
  -Hartree energ DENC   =     -1787.29756486
  -exchange      EXHF   =         0.00000000
  -V(xc)+E(xc)   XCENC  =       323.73338209
  PAW double counting   =     48257.00505020   -48237.53549428
  entropy T*S    EENTRO =        -0.00000000
  eigenvalues    EBANDS =      -714.80024274
  atomic energy  EATOM  =      3695.08646324
  ---------------------------------------------------
  free energy    TOTEN  =      -210.26921864 eV

  energy without entropy =     -210.26921864  energy(sigma->0) =     -210.26921864


--------------------------------------------------------------------------------------------------------




--------------------------------------- Iteration      1(  17)  ---------------------------------------


    POTLOK:  cpu time      0.7717: real time      0.7718
    SETDIJ:  cpu time      0.2996: real time      0.3000
    TRIAL :  cpu time      2.0702: real time      2.0712
    CORREC:  cpu time      1.8768: real time      1.8782
    CHARGE:  cpu time      0.1921: real time      0.1921
    --------------------------------------------
      LOOP:  cpu time      5.2232: real time      5.2434

 eigenvalue-minimisations  :     0
 total energy-change (2. order) :-0.2054007E-04  (-0.4648392E-05)
 number of electron      88.0000000 magnetization 
 augmentation part        0.1095417 magnetization 

 Free energy of the ion-electron system (eV)
  ---------------------------------------------------
  alpha Z        PSCENC =        83.55220166
  Ewald energy   TEWEN  =     -1830.01301394
  -Hartree energ DENC   =     -1787.32228859
  -exchange      EXHF   =         0.00000000
  -V(xc)+E(xc)   XCENC  =       323.73627194
  PAW double counting   =     48266.93957955   -48247.47004057
  entropy T*S    EENTRO =        -0.00000000
  eigenvalues    EBANDS =      -714.77841246
  atomic energy  EATOM  =      3695.08646324
  ---------------------------------------------------
  free energy    TOTEN  =      -210.26923918 eV

  energy without entropy =     -210.26923918  energy(sigma->0) =     -210.26923918


--------------------------------------------------------------------------------------------------------




--------------------------------------- Iteration      1(  18)  ---------------------------------------


    POTLOK:  cpu time      0.7673: real time      0.7678
    SETDIJ:  cpu time      0.3519: real time      0.3520
    TRIAL :  cpu time      2.0397: real time      2.0408
    CORREC:  cpu time      1.8770: real time      1.8780
    CHARGE:  cpu time      0.1915: real time      0.1915
    --------------------------------------------
      LOOP:  cpu time      5.2571: real time      5.2599

 eigenvalue-minimisations  :     0
 total energy-change (2. order) :-0.4741509E-05  (-0.2483270E-05)
 number of electron      88.0000000 magnetization 
 augmentation part        0.1095300 magnetization 

 Free energy of the ion-electron system (eV)
  ---------------------------------------------------
  alpha Z        PSCENC =        83.55220166
  Ewald energy   TEWEN  =     -1830.01301394
  -Hartree energ DENC   =     -1787.32778661
  -exchange      EXHF   =         0.00000000
  -V(xc)+E(xc)   XCENC  =       323.73625624
  PAW double counting   =     48272.08911539   -48252.61936074
  entropy T*S    EENTRO =        -0.00000000
  eigenvalues    EBANDS =      -714.77311917
  atomic energy  EATOM  =      3695.08646324
  ---------------------------------------------------
  free energy    TOTEN  =      -210.26924392 eV

  energy without entropy =     -210.26924392  energy(sigma->0) =     -210.26924392


--------------------------------------------------------------------------------------------------------




--------------------------------------- Iteration      1(  19)  ---------------------------------------


    POTLOK:  cpu time      0.7680: real time      0.7685
    SETDIJ:  cpu time      0.3409: real time      0.3410
    TRIAL :  cpu time      2.0388: real time      2.0399
    CORREC:  cpu time      1.6794: real time      1.6805
    CHARGE:  cpu time      0.1920: real time      0.1920
    --------------------------------------------
      LOOP:  cpu time      5.0326: real time      5.0517

 eigenvalue-minimisations  :     0
 total energy-change (2. order) :-0.2113666E-05  ( 0.1840707E-05)
 number of electron      88.0000000 magnetization 
 augmentation part        0.1095341 magnetization 

 Free energy of the ion-electron system (eV)
  ---------------------------------------------------
  alpha Z        PSCENC =        83.55220166
  Ewald energy   TEWEN  =     -1830.01301394
  -Hartree energ DENC   =     -1787.33306884
  -exchange      EXHF   =         0.00000000
  -V(xc)+E(xc)   XCENC  =       323.73658797
  PAW double counting   =     48274.39875324   -48254.92909314
  entropy T*S    EENTRO =        -0.00000000
  eigenvalues    EBANDS =      -714.76807622
  atomic energy  EATOM  =      3695.08646324
  ---------------------------------------------------
  free energy    TOTEN  =      -210.26924603 eV

  energy without entropy =     -210.26924603  energy(sigma->0) =     -210.26924603


--------------------------------------------------------------------------------------------------------




--------------------------------------- Iteration      1(  20)  ---------------------------------------


    POTLOK:  cpu time      0.7679: real time      0.7684
    SETDIJ:  cpu time      0.3029: real time      0.3029
    TRIAL :  cpu time      2.0883: real time      2.0894
    CORREC:  cpu time      1.8776: real time      1.8787
    CHARGE:  cpu time      0.1915: real time      0.1915
    --------------------------------------------
      LOOP:  cpu time      5.2453: real time      5.2617

 eigenvalue-minimisations  :     0
 total energy-change (2. order) :-0.9375581E-06  (-0.3412369E-06)
 number of electron      88.0000000 magnetization 
 augmentation part        0.1095341 magnetization 

 Free energy of the ion-electron system (eV)
  ---------------------------------------------------
  alpha Z        PSCENC =        83.55220166
  Ewald energy   TEWEN  =     -1830.01301394
  -Hartree energ DENC   =     -1787.33221702
  -exchange      EXHF   =         0.00000000
  -V(xc)+E(xc)   XCENC  =       323.73673987
  PAW double counting   =     48275.39462085   -48255.92504584
  entropy T*S    EENTRO =        -0.00000000
  eigenvalues    EBANDS =      -714.76899578
  atomic energy  EATOM  =      3695.08646324
  ---------------------------------------------------
  free energy    TOTEN  =      -210.26924697 eV

  energy without entropy =     -210.26924697  energy(sigma->0) =     -210.26924697


--------------------------------------------------------------------------------------------------------




--------------------------------------- Iteration      1(  21)  ---------------------------------------


    POTLOK:  cpu time      0.7680: real time      0.7685
    SETDIJ:  cpu time      0.3037: real time      0.3038
    TRIAL :  cpu time      2.1157: real time      2.1172
    CORREC:  cpu time      1.8767: real time      1.8773
    CHARGE:  cpu time      0.1916: real time      0.1920
    --------------------------------------------
      LOOP:  cpu time      5.2865: real time      5.2898

 eigenvalue-minimisations  :     0
 total energy-change (2. order) :-0.3384193E-06  (-0.3029534E-07)
 number of electron      88.0000000 magnetization 
 augmentation part        0.1095328 magnetization 

 Free energy of the ion-electron system (eV)
  ---------------------------------------------------
  alpha Z        PSCENC =        83.55220166
  Ewald energy   TEWEN  =     -1830.01301394
  -Hartree energ DENC   =     -1787.32894994
  -exchange      EXHF   =         0.00000000
  -V(xc)+E(xc)   XCENC  =       323.73658793
  PAW double counting   =     48275.93170702   -48256.46213045
  entropy T*S    EENTRO =        -0.00000000
  eigenvalues    EBANDS =      -714.77211282
  atomic energy  EATOM  =      3695.08646324
  ---------------------------------------------------
  free energy    TOTEN  =      -210.26924731 eV

  energy without entropy =     -210.26924731  energy(sigma->0) =     -210.26924731


--------------------------------------------------------------------------------------------------------




--------------------------------------- Iteration      1(  22)  ---------------------------------------


    POTLOK:  cpu time      0.7702: real time      0.7703
    SETDIJ:  cpu time      0.3007: real time      0.3013
    TRIAL :  cpu time      2.0458: real time      2.0469
    CORREC:  cpu time      1.8825: real time      1.8835
    EDDIAG:  cpu time      0.5989: real time      0.6000
    CHARGE:  cpu time      0.1916: real time      0.1916
    --------------------------------------------
      LOOP:  cpu time      5.8031: real time      5.8238

 eigenvalue-minimisations  :     0
 total energy-change (2. order) : 0.2232991E-07  (-0.2114494E-07)
 number of electron      88.0000000 magnetization 
 augmentation part        0.1095318 magnetization 

 Free energy of the ion-electron system (eV)
  ---------------------------------------------------
  alpha Z        PSCENC =        83.55220166
  Ewald energy   TEWEN  =     -1830.01301394
  -Hartree energ DENC   =     -1787.32857655
  -exchange      EXHF   =         0.00000000
  -V(xc)+E(xc)   XCENC  =       323.73653374
  PAW double counting   =     48275.92793363   -48256.45834727
  entropy T*S    EENTRO =        -0.00000000
  eigenvalues    EBANDS =      -714.77244180
  atomic energy  EATOM  =      3695.08646324
  ---------------------------------------------------
  free energy    TOTEN  =      -210.26924728 eV

  energy without entropy =     -210.26924728  energy(sigma->0) =     -210.26924728


--------------------------------------------------------------------------------------------------------


  average scaling for gradient   0.9040


 average (electrostatic) potential at core
  the test charge radii are     0.5770  0.4325  0.5955
  (the norm of the test charge is              1.0000)
       1 -85.5151       2 -85.5150       3 -83.3425       4 -83.3425       5 -83.2260
       6 -83.2260       7 -85.4218       8 -85.4217       9 -83.2473      10 -83.2475
      11 -83.2198      12 -83.2202      13 -41.7631      14 -41.7633      15 -41.9580
      16 -41.9581      17 -41.8109      18 -41.8110      19 -41.5932      20 -41.5931
      21 -41.6676      22 -41.6677      23 -41.7930      24 -41.7932      25 -41.7949
      26 -41.7951      27 -41.5510      28 -41.5509      29-117.9524      30-117.9532
      31-117.8443      32-117.8447



 E-fermi :  -0.4734     XC(G=0):  -8.8130     alpha+bet : -7.2469

 Fermi energy:        -0.4733895588

 k-point     1 :       0.0000    0.0000    0.0000
[...]
      2     -22.1644      2.00000
      3     -22.1172      2.00000
      4     -22.0714      2.00000
      5     -16.3782      2.00000
      6     -16.2679      2.00000
      7     -14.6372      2.00000
      8     -14.4744      2.00000
      9     -12.9455      2.00000
     10     -12.9387      2.00000
     11     -11.4552      2.00000
     12     -11.4005      2.00000
     13      -9.0747      2.00000
     14      -9.0187      2.00000
     15      -7.8091      2.00000
     16      -7.7122      2.00000
     17      -7.5078      2.00000
     18      -7.4043      2.00000
     19      -6.8277      2.00000
     20      -6.7574      2.00000
     21      -6.6392      2.00000
     22      -6.5512      2.00000
     23      -5.9460      2.00000
     24      -5.7248      2.00000
     25      -5.5282      2.00000
     26      -5.3585      2.00000
     27      -5.2058      2.00000
     28      -5.0242      2.00000
     29      -4.8686      2.00000
     30      -4.7110      2.00000
     31      -4.6333      2.00000
     32      -4.6111      2.00000
     33      -4.2765      2.00000
     34      -4.0006      2.00000
     35      -3.8079      2.00000
     36      -3.6108      2.00000
     37      -3.4554      2.00000
     38      -3.3862      2.00000
     39      -3.0552      2.00000
     40      -2.8875      2.00000
     41      -0.8234      2.00000
     42      -0.7134      2.00000
     43      -0.5989      2.00000
     44      -0.5340      2.00000
     45       3.3212      0.00000
     46       3.7489      0.00000
     47       3.7724      0.00000
     48       3.9782      0.00000
     49       6.1924      0.00000
     50       6.3599      0.00000
     51       6.6129      0.00000
     52       6.8307      0.00000
     53       7.3988      0.00000
     54       7.6824      0.00000
     55       8.1081      0.00000
     56       8.3314      0.00000
     57       8.3581      0.00000
     58       8.6261      0.00000
     59       9.0357      0.00000
     60       9.2830      0.00000
     61       9.4740      0.00000
     62       9.7845      0.00000
     63      10.1143      0.00000
     64      10.2986      0.00000

 k-point    34 :       0.0000    0.5000    0.5000
  band No.  band energies     occupation 
      1     -22.2218      2.00000
      2     -22.2216      2.00000
      3     -22.0951      2.00000
      4     -22.0951      2.00000
      5     -16.3402      2.00000
      6     -16.3400      2.00000
      7     -14.5041      2.00000
      8     -14.5040      2.00000
      9     -12.9243      2.00000
     10     -12.9241      2.00000
     11     -11.4995      2.00000
     12     -11.4994      2.00000
     13      -9.1415      2.00000
     14      -9.1413      2.00000
     15      -7.8445      2.00000
     16      -7.8444      2.00000
     17      -7.2258      2.00000
     18      -7.2257      2.00000
     19      -6.9003      2.00000
     20      -6.8999      2.00000
     21      -6.6186      2.00000
     22      -6.6186      2.00000
     23      -5.6814      2.00000
     24      -5.6812      2.00000
     25      -5.4668      2.00000
     26      -5.4667      2.00000
     27      -5.1226      2.00000
     28      -5.1225      2.00000
     29      -4.7588      2.00000
     30      -4.7587      2.00000
     31      -4.5729      2.00000
     32      -4.5729      2.00000
     33      -4.1300      2.00000
     34      -4.1300      2.00000
     35      -3.7146      2.00000
     36      -3.7143      2.00000
     37      -3.4260      2.00000
     38      -3.4257      2.00000
     39      -2.9928      2.00000
     40      -2.9926      2.00000
     41      -0.7651      2.00000
     42      -0.7649      2.00000
     43      -0.6344      2.00000
     44      -0.6340      2.00000
     45       3.5261      0.00000
     46       3.5263      0.00000
     47       3.8449      0.00000
     48       3.8452      0.00000
     49       6.3246      0.00000
     50       6.3246      0.00000
     51       6.5774      0.00000
     52       6.5774      0.00000
     53       7.6064      0.00000
     54       7.6064      0.00000
     55       8.3696      0.00000
     56       8.3696      0.00000
     57       8.7055      0.00000
     58       8.7079      0.00000
     59       8.9816      0.00000
     60       9.0009      0.00000
     61       9.5038      0.00000
     62       9.5171      0.00000
     63      10.1641      0.00000
     64      10.1862      0.00000

 k-point    35 :       0.2500    0.5000    0.5000
  band No.  band energies     occupation 
      1     -22.2220      2.00000
      2     -22.2218      2.00000
      3     -22.0947      2.00000
      4     -22.0946      2.00000
      5     -16.3321      2.00000
      6     -16.3320      2.00000
      7     -14.5310      2.00000
      8     -14.5309      2.00000
      9     -12.9332      2.00000
     10     -12.9330      2.00000
     11     -11.4659      2.00000
     12     -11.4658      2.00000
     13      -9.0939      2.00000
     14      -9.0937      2.00000
     15      -7.8109      2.00000
     16      -7.8107      2.00000
     17      -7.3602      2.00000
     18      -7.3601      2.00000
     19      -6.8026      2.00000
     20      -6.8023      2.00000
     21      -6.5919      2.00000
     22      -6.5918      2.00000
     23      -5.7517      2.00000
     24      -5.7514      2.00000
     25      -5.4869      2.00000
     26      -5.4866      2.00000
     27      -5.1269      2.00000
     28      -5.1268      2.00000
     29      -4.8063      2.00000
     30      -4.8062      2.00000
     31      -4.5629      2.00000
     32      -4.5629      2.00000
     33      -4.1402      2.00000
     34      -4.1402      2.00000
     35      -3.7040      2.00000
     36      -3.7039      2.00000
     37      -3.4146      2.00000
     38      -3.4143      2.00000
     39      -2.9869      2.00000
     40      -2.9867      2.00000
     41      -0.7705      2.00000
     42      -0.7703      2.00000
     43      -0.5954      2.00000
     44      -0.5951      2.00000
     45       3.5162      0.00000
     46       3.5164      0.00000
     47       3.8515      0.00000
     48       3.8518      0.00000
     49       6.3264      0.00000
     50       6.3264      0.00000
     51       6.7838      0.00000
     52       6.7839      0.00000
     53       7.4815      0.00000
     54       7.4816      0.00000
     55       8.0747      0.00000
     56       8.0747      0.00000
     57       8.6293      0.00000
     58       8.6324      0.00000
     59       9.0610      0.00000
     60       9.0727      0.00000
     61       9.7092      0.00000
     62       9.7587      0.00000
     63       9.9338      0.00000
     64      10.0154      0.00000

 k-point    36 :       0.5000    0.5000    0.5000
  band No.  band energies     occupation 
      1     -22.2223      2.00000
      2     -22.2221      2.00000
      3     -22.0942      2.00000
      4     -22.0942      2.00000
      5     -16.3240      2.00000
      6     -16.3238      2.00000
      7     -14.5579      2.00000
      8     -14.5578      2.00000
      9     -12.9413      2.00000
     10     -12.9411      2.00000
     11     -11.4340      2.00000
     12     -11.4339      2.00000
     13      -9.0432      2.00000
     14      -9.0430      2.00000
     15      -7.7153      2.00000
     16      -7.7152      2.00000
     17      -7.5462      2.00000
     18      -7.5460      2.00000
     19      -6.6979      2.00000
     20      -6.6976      2.00000
     21      -6.5710      2.00000
     22      -6.5710      2.00000
     23      -5.8402      2.00000
     24      -5.8398      2.00000
     25      -5.5224      2.00000
     26      -5.5221      2.00000
     27      -5.1246      2.00000
     28      -5.1245      2.00000
     29      -4.7628      2.00000
     30      -4.7627      2.00000
     31      -4.6539      2.00000
     32      -4.6538      2.00000
     33      -4.1051      2.00000
     34      -4.1051      2.00000
     35      -3.7214      2.00000
     36      -3.7212      2.00000
     37      -3.3988      2.00000
     38      -3.3986      2.00000
     39      -2.9791      2.00000
     40      -2.9788      2.00000
     41      -0.7730      2.00000
     42      -0.7728      2.00000
     43      -0.5599      2.00000
     44      -0.5596      2.00000
     45       3.5081      0.00000
     46       3.5083      0.00000
     47       3.8529      0.00000
     48       3.8531      0.00000
     49       6.4110      0.00000
     50       6.4110      0.00000
     51       7.0503      0.00000
     52       7.0504      0.00000
     53       7.1793      0.00000
     54       7.1794      0.00000
     55       7.8955      0.00000
     56       7.8955      0.00000
     57       8.5250      0.00000
     58       8.5255      0.00000
     59       9.3059      0.00000
     60       9.3076      0.00000
     61       9.5342      0.00000
     62       9.5536      0.00000
     63       9.9978      0.00000
     64      10.1664      0.00000


--------------------------------------------------------------------------------------------------------


 soft charge-density along one line, spin component           1
         0         1         2         3         4         5         6         7         8         9
 total charge-density along one line

 pseudopotential strength for first ion, spin component:           1
 12.538  21.095  -0.000   0.008   0.004  -0.000   0.014   0.008
 21.095  35.490  -0.000   0.014   0.007  -0.000   0.024   0.013
 -0.000  -0.000  -3.213  -0.000   0.000  -5.753  -0.000   0.000
  0.008   0.014  -0.000  -3.202   0.001  -0.000  -5.734   0.001
  0.004   0.007   0.000   0.001  -3.202   0.000   0.001  -5.734
 -0.000  -0.000  -5.753  -0.000   0.000 -10.278  -0.001   0.000
  0.014   0.024  -0.000  -5.734   0.001  -0.001 -10.246   0.001
  0.008   0.013   0.000   0.001  -5.734   0.000   0.001 -10.245
 total augmentation occupancy for first ion, spin component:           1
  9.427  -3.575  -0.061   2.331   1.192   0.028  -1.117  -0.572
 -3.575   1.442   0.029  -1.210  -0.623  -0.013   0.560   0.288
 -0.061   0.029   3.051  -0.087  -0.021  -0.933   0.034   0.013
  2.331  -1.210  -0.087   9.279   1.517   0.034  -3.453  -0.706
  1.192  -0.623  -0.021   1.517   7.162   0.013  -0.706  -2.459
  0.028  -0.013  -0.933   0.034   0.013   0.288  -0.014  -0.007
 -1.117   0.560   0.034  -3.453  -0.706  -0.014   1.323   0.320
 -0.572   0.288   0.013  -0.706  -2.459  -0.007   0.320   0.871


------------------------ aborting loop because EDIFF is reached ----------------------------------------


    FORLOC:  cpu time      0.0079: real time      0.0079
    FORNL :  cpu time      0.4471: real time      0.4478
    FORCOR:  cpu time      1.0760: real time      1.0768
    OFIELD:  cpu time      0.0018: real time      0.0018

 VOLUME and BASIS-vectors are now :
 -----------------------------------------------------------------------------
  energy-cutoff  :     1000.00
  volume of cell :      279.55
      direct lattice vectors                 reciprocal lattice vectors
     6.650000000  0.000000000  0.000000000     0.150375940 -0.000000000  0.026028459
     0.000000000  6.210000000  0.000000000     0.000000000  0.161030596 -0.000000000
    -1.171700000  0.000000000  6.769340000     0.000000000  0.000000000  0.147724889

  length of vectors
     6.650000000  6.210000000  6.869995992     0.152611939  0.161030596  0.147724889


 FORCES acting on ions:
    Electron-Ion                     Ewald-Force                    Non-Local-Force
 -----------------------------------------------------------------------------------------------
   0.353E+02 -.793E+01 0.559E+02   -.377E+02 0.791E+01 -.598E+02   0.251E+01 0.937E-02 0.413E+01
   -.353E+02 -.795E+01 -.559E+02   0.377E+02 0.792E+01 0.598E+02   -.252E+01 0.107E-01 -.413E+01
   -.103E+03 0.107E+01 0.372E+02   0.105E+03 -.507E+00 -.366E+02   -.202E+01 -.563E+00 -.599E+00
   0.103E+03 0.107E+01 -.372E+02   -.105E+03 -.501E+00 0.366E+02   0.202E+01 -.562E+00 0.600E+00
   -.491E+02 -.574E+02 0.671E+02   0.496E+02 0.579E+02 -.696E+02   -.563E+00 -.570E+00 0.250E+01
   0.491E+02 -.574E+02 -.671E+02   -.496E+02 0.579E+02 0.696E+02   0.563E+00 -.570E+00 -.250E+01
   -.129E+02 -.251E+02 -.434E+02   0.144E+02 0.268E+02 0.471E+02   -.158E+01 -.177E+01 -.389E+01
   0.129E+02 -.251E+02 0.434E+02   -.144E+02 0.268E+02 -.471E+02   0.158E+01 -.176E+01 0.389E+01
   0.919E+02 0.507E+02 -.355E+02   -.932E+02 -.524E+02 0.349E+02   0.145E+01 0.169E+01 0.504E+00
   -.919E+02 0.507E+02 0.355E+02   0.932E+02 -.523E+02 -.349E+02   -.145E+01 0.169E+01 -.503E+00
   0.103E+03 -.289E+02 -.582E+02   -.104E+03 0.292E+02 0.604E+02   0.128E+01 -.355E+00 -.225E+01
   -.103E+03 -.289E+02 0.582E+02   0.104E+03 0.292E+02 -.604E+02   -.128E+01 -.355E+00 0.225E+01
   -.470E+02 -.264E+02 0.767E+00   0.511E+02 0.300E+02 -.310E+00   -.430E+01 -.380E+01 -.468E+00
   0.470E+02 -.264E+02 -.766E+00   -.511E+02 0.300E+02 0.308E+00   0.430E+01 -.380E+01 0.468E+00
   -.364E+02 0.400E+02 0.980E+01   0.387E+02 -.449E+02 -.101E+02   -.239E+01 0.510E+01 0.346E+00
   0.364E+02 0.400E+02 -.980E+01   -.387E+02 -.449E+02 0.101E+02   0.239E+01 0.510E+01 -.346E+00
   0.113E+02 -.537E+02 0.824E+01   -.132E+02 0.587E+02 -.797E+01   0.197E+01 -.526E+01 -.274E+00
   -.112E+02 -.537E+02 -.824E+01   0.132E+02 0.587E+02 0.797E+01   -.197E+01 -.526E+01 0.273E+00
   -.290E+02 -.821E+00 0.394E+02   0.320E+02 0.301E+00 -.442E+02   -.308E+01 0.525E+00 0.492E+01
   0.290E+02 -.821E+00 -.394E+02   -.320E+02 0.300E+00 0.442E+02   0.308E+01 0.526E+00 -.492E+01
   0.647E+01 0.522E+02 -.145E+02   -.549E+01 -.575E+02 0.157E+02   -.100E+01 0.550E+01 -.123E+01
   -.647E+01 0.522E+02 0.145E+02   0.549E+01 -.575E+02 -.157E+02   0.100E+01 0.550E+01 0.123E+01
   0.551E+02 0.939E-01 -.409E+00   -.605E+02 0.369E+00 -.444E+00   0.563E+01 -.475E+00 0.873E+00
   -.551E+02 0.931E-01 0.408E+00   0.605E+02 0.370E+00 0.445E+00   -.563E+01 -.475E+00 -.873E+00
   0.270E+02 -.503E+02 -.142E+01   -.284E+02 0.554E+02 0.301E+00   0.151E+01 -.529E+01 0.115E+01
   -.270E+02 -.503E+02 0.142E+01   0.284E+02 0.554E+02 -.301E+00   -.151E+01 -.529E+01 -.115E+01
   0.341E+02 0.900E+01 -.415E+02   -.365E+02 -.104E+02 0.464E+02   0.247E+01 0.146E+01 -.508E+01
   -.341E+02 0.900E+01 0.415E+02   0.365E+02 -.104E+02 -.464E+02   -.247E+01 0.146E+01 0.508E+01
   -.105E+03 0.835E+01 -.203E+03   0.127E+03 -.930E+01 0.247E+03   -.226E+02 0.966E+00 -.449E+02
   0.105E+03 0.835E+01 0.203E+03   -.127E+03 -.930E+01 -.247E+03   0.226E+02 0.966E+00 0.449E+02
   0.592E+02 0.719E+02 0.197E+03   -.748E+02 -.916E+02 -.240E+03   0.157E+02 0.200E+02 0.434E+02
   -.592E+02 0.719E+02 -.197E+03   0.748E+02 -.916E+02 0.240E+03   -.158E+02 0.200E+02 -.434E+02
 -----------------------------------------------------------------------------------------------
   0.118E-01 -.343E+02 -.794E-02   -.853E-13 0.142E-13 -.114E-12   -.115E-01 0.343E+02 0.795E-02


 POSITION                                       TOTAL-FORCE (eV/Angst)
 -----------------------------------------------------------------------------------
      2.33943      1.04586      3.02756         0.184214     -0.019521      0.369824
      3.13887      4.15084      3.74174        -0.182251     -0.019578     -0.369541
      3.14138      1.05382      1.74136        -0.099559     -0.010662      0.069485
      2.33692      4.15884      5.02796         0.099532     -0.010528     -0.069724
      2.29868      1.33346      0.48877        -0.083492     -0.070374      0.042057
      3.17960      4.43849      6.28055         0.083384     -0.070851     -0.042147
      1.08332      0.43536      0.40806        -0.145092     -0.170797     -0.370237
      4.39496      3.54038      6.36128         0.144452     -0.170408      0.369517
      0.37650      0.15086      1.71908         0.098982      0.039842     -0.072464
      5.10181      3.25588      5.05027        -0.099290      0.040134      0.073010
      0.83730      1.05014      2.87842         0.131043     -0.023681     -0.032742
      4.64101      4.15513      3.89090        -0.131971     -0.024010      0.032488
      3.96089      1.78028      1.83684        -0.167479     -0.132760     -0.010425
      1.51741      4.88530      4.93246         0.167402     -0.132716      0.010378
      3.60389      0.05582      1.67215        -0.101886      0.171249      0.032157
      1.87439      3.16085      5.09717         0.101891      0.171248     -0.032168
      1.90932      2.36598      0.54620         0.055703     -0.210672     -0.002516
      3.56892      5.47102      6.22314        -0.055510     -0.210735      0.002516
      1.71477      1.23496      6.33619        -0.116910      0.003238      0.170409
      3.76351      4.33996      0.43313         0.116790      0.003288     -0.170402
      0.57545      5.30210      1.95712        -0.025966      0.218297     -0.063421
      4.90287      2.19711      4.81225         0.025941      0.218223      0.063388
      5.94595      0.24489      1.55324         0.224788     -0.013901      0.019646
     -0.46765      3.34992      5.21611        -0.224674     -0.013911     -0.019592
      0.55432      2.09483      2.65180         0.075791     -0.201755      0.029906
      4.92398      5.19983      4.11753        -0.075984     -0.201757     -0.030019
      0.37111      0.76905      3.83222         0.106619      0.047476     -0.180880
      5.10722      3.87403      2.93710        -0.106909      0.047572      0.181254
      2.89745      1.02711      4.12245        -0.370651      0.022663     -0.741250
      2.58086      4.13202      2.64683         0.370143      0.022897      0.741317
     -0.47541      6.15418      6.12126         0.240085      0.351333      0.746229
      5.95364      3.04916      0.64808        -0.239135      0.351156     -0.746053
 -----------------------------------------------------------------------------------
    total drift:                                0.000370      0.063702      0.000012


--------------------------------------------------------------------------------------------------------



  FREE ENERGIE OF THE ION-ELECTRON SYSTEM (eV)
  ---------------------------------------------------
  free  energy   TOTEN  =      -210.26924728 eV

  energy  without entropy=     -210.26924728  energy(sigma->0) =     -210.26924728



--------------------------------------------------------------------------------------------------------


    POTLOK:  cpu time      1.0784: real time      1.0788


--------------------------------------------------------------------------------------------------------


 stress matrix after NEB project (eV)
      0.00000      0.00000      0.00000
      0.00000      0.00000      0.00000
      0.00000      0.00000      0.00000
  FORCES: max atom, RMS     0.859031    0.372523
  FORCE total and by dimension    2.107308    0.746229
  Stress total and by dimension    0.000000    0.000000
     LOOP+:  cpu time    112.5372: real time    112.9291
    4ORBIT:  cpu time      0.0000: real time      0.0000

 total amount of memory used by VASP MPI-rank0    57624. kBytes
=======================================================================

   base      :      30000. kBytes
   nonl-proj :       4691. kBytes
   fftplans  :       1556. kBytes
   grid      :       3680. kBytes
   one-center:          3. kBytes
   wavefun   :      17694. kBytes

  
  
 General timing and accounting informations for this job:
 ========================================================
  
                  Total CPU time used (sec):      125.252
                            User time (sec):      123.048
                          System time (sec):        2.203
                         Elapsed time (sec):      129.561
  
                   Maximum memory used (kb):      271996.
                   Average memory used (kb):          N/A
  
                          Minor page faults:        59470
                          Major page faults:          706
                 Voluntary context switches:         3588
