 vasp.6.4.1 05Apr23 (build Jun  6 2023 14:46:38) gamma-only                      
 executed on        HPECrayEX_GCC date 2024.08.20  18:42:28
 running  256 mpi-ranks, with    1 threads/rank, on    2 nodes
 distrk:  each k-point on  128 cores,    2 groups
 distr:  one band on NCORE=  32 cores,    4 groups


--------------------------------------------------------------------------------------------------------


 INCAR:
   ALGO = Conjugate
   KPAR = 2
   NCORE = 32
   ISMEAR = 0
   SIGMA = 0.01
   PREC = Accurate
   EDIFF = 1E-7
   ENCUT = 1000
   ISIF = 0
   GGA = RE
   IVDW = 11
   LWAVE = .FALSE.
   LCHARG = .FALSE.
   SYMPREC = 1E-7
   LWAVE = .FALSE.
   LCHARG = .FALSE.

 POTCAR:    PAW_PBE C_h 06Feb2004                 
 POTCAR:    PAW_PBE H_h 06Feb2004                 
 POTCAR:    PAW_PBE O_h 06Feb2004                 
 POTCAR:    PAW_PBE C_h 06Feb2004                 
   VRHFIN =C: s2p2                                                                                  
   LEXCH  = PE                                                                                      
   EATOM  =   147.1560 eV,   10.8157 Ry                                                             
                                                                                                    
   TITEL  = PAW_PBE C_h 06Feb2004                                                                   
   LULTRA =        F    use ultrasoft PP ?                                                          
   IUNSCR =        1    unscreen: 0-lin 1-nonlin 2-no                                               
   RPACOR =    0.800    partial core radius                                                         
   POMASS =   12.011; ZVAL   =    4.000    mass and valenz                                          
   RCORE  =    1.100    outmost cutoff radius                                                       
   RWIGS  =    1.630; RWIGS  =    0.863    wigner-seitz radius (au A)                               
   ENMAX  =  700.000; ENMIN  =  500.000 eV                                                          
   ICORE  =        2    local potential                                                             
   LCOR   =        T    correct aug charges                                                         
   LPAW   =        T    paw PP                                                                      
   EAUG   =  946.768                                                                                
   DEXC   =    0.000                                                                                
   RMAX   =    1.128    core radius for proj-oper                                                   
   RAUG   =    1.300    factor for augmentation sphere                                              
   RDEP   =    1.162    radius for radial grids                                                     
   RDEPT  =    1.088    core radius for aug-charge                                                  
                                                                                                    
   Atomic configuration                                                                             
    4 entries                                                                                       
     n  l   j            E        occ.                                                              
     1  0  0.50      -273.3789   2.0000                                                             
     2  0  0.50       -13.7508   2.0000                                                             
     2  1  0.50        -5.2854   2.0000                                                             
     3  2  1.50        -5.4423   0.0000                                                             
   Description                                                                                      
     l       E           TYP  RCUT    TYP  RCUT                                                     
     0    -13.7508458     23  1.100                                                                 
     0     -8.2022199     23  1.100                                                                 
     1     -5.2854383     23  1.100                                                                 
     1      1.1560700     23  1.100                                                                 
     2     -5.4423304      7  1.100                                                                 
  local pseudopotential read in
  partial core-charges read in
  partial kinetic energy density read in
  atomic valenz-charges read in
  non local Contribution for L=           0  read in
    real space projection operators read in
  non local Contribution for L=           0  read in
    real space projection operators read in
  non local Contribution for L=           1  read in
    real space projection operators read in
  non local Contribution for L=           1  read in
    real space projection operators read in
    PAW grid and wavefunctions read in

   number of l-projection  operators is LMAX  =           4
   number of lm-projection operators is LMMAX =           8

 POTCAR:    PAW_PBE H_h 06Feb2004                 
   VRHFIN =H: ultrasoft test                                                                        
   LEXCH  = PE                                                                                      
   EATOM  =    12.4884 eV,    0.9179 Ry                                                             
                                                                                                    
   TITEL  = PAW_PBE H_h 06Feb2004                                                                   
   LULTRA =        F    use ultrasoft PP ?                                                          
   IUNSCR =        0    unscreen: 0-lin 1-nonlin 2-no                                               
   RPACOR =    0.000    partial core radius                                                         
   POMASS =    1.000; ZVAL   =    1.000    mass and valenz                                          
   RCORE  =    0.800    outmost cutoff radius                                                       
   RWIGS  =    0.700; RWIGS  =    0.370    wigner-seitz radius (au A)                               
   ENMAX  =  700.000; ENMIN  =  350.000 eV                                                          
   RCLOC  =    0.701    cutoff for local pot                                                        
   LCOR   =        T    correct aug charges                                                         
   LPAW   =        T    paw PP                                                                      
   EAUG   = 1000.000                                                                                
   RMAX   =    0.819    core radius for proj-oper                                                   
   RAUG   =    1.000    factor for augmentation sphere                                              
   RDEP   =    0.817    radius for radial grids                                                     
   RDEPT  =    0.817    core radius for aug-charge                                                  
                                                                                                    
   Atomic configuration                                                                             
    2 entries                                                                                       
     n  l   j            E        occ.                                                              
     1  0  0.50        -6.4927   1.0000                                                             
     2  1  0.50        -3.4015   0.0000                                                             
   Description                                                                                      
     l       E           TYP  RCUT    TYP  RCUT                                                     
     0     -6.4927493     23  0.800                                                                 
     0      6.8029130     23  0.800                                                                 
     1     -6.8029130     23  0.800                                                                 
  local pseudopotential read in
  atomic valenz-charges read in
  non local Contribution for L=           0  read in
    real space projection operators read in
  non local Contribution for L=           0  read in
    real space projection operators read in
  non local Contribution for L=           1  read in
    real space projection operators read in
    PAW grid and wavefunctions read in

   number of l-projection  operators is LMAX  =           3
   number of lm-projection operators is LMMAX =           5

 POTCAR:    PAW_PBE O_h 06Feb2004                 
   VRHFIN =O: s2p4                                                                                  
   LEXCH  = PE                                                                                      
   EATOM  =   432.3788 eV,   31.7789 Ry                                                             
                                                                                                    
   TITEL  = PAW_PBE O_h 06Feb2004                                                                   
   LULTRA =        F    use ultrasoft PP ?                                                          
   IUNSCR =        1    unscreen: 0-lin 1-nonlin 2-no                                               
   RPACOR =    0.800    partial core radius                                                         
   POMASS =   16.000; ZVAL   =    6.000    mass and valenz                                          
   RCORE  =    1.100    outmost cutoff radius                                                       
   RWIGS  =    1.400; RWIGS  =    0.741    wigner-seitz radius (au A)                               
   ENMAX  =  700.000; ENMIN  =  500.000 eV                                                          
   ICORE  =        2    local potential                                                             
   LCOR   =        T    correct aug charges                                                         
   LPAW   =        T    paw PP                                                                      
   EAUG   =  888.804                                                                                
   DEXC   =    0.000                                                                                
   RMAX   =    1.128    core radius for proj-oper                                                   
   RAUG   =    1.300    factor for augmentation sphere                                              
   RDEP   =    1.125    radius for radial grids                                                     
   RDEPT  =    1.088    core radius for aug-charge                                                  
                                                                                                    
   Atomic configuration                                                                             
    4 entries                                                                                       
     n  l   j            E        occ.                                                              
     1  0  0.50      -514.6923   2.0000                                                             
     2  0  0.50       -23.9615   2.0000                                                             
     2  1  0.50        -9.0305   4.0000                                                             
     3  2  1.50        -9.5241   0.0000                                                             
   Description                                                                                      
     l       E           TYP  RCUT    TYP  RCUT                                                     
     0    -23.9615319     23  1.100                                                                 
     0    -25.3221145     23  1.100                                                                 
     1     -9.0304911     23  1.100                                                                 
     1     -5.4802209     23  1.100                                                                 
     2     -9.5240782      7  1.100                                                                 
  local pseudopotential read in
  partial core-charges read in
  partial kinetic energy density read in
  atomic valenz-charges read in
  non local Contribution for L=           0  read in
    real space projection operators read in
  non local Contribution for L=           0  read in
    real space projection operators read in
  non local Contribution for L=           1  read in
    real space projection operators read in
  non local Contribution for L=           1  read in
    real space projection operators read in
    PAW grid and wavefunctions read in

   number of l-projection  operators is LMAX  =           4
   number of lm-projection operators is LMMAX =           8

 -----------------------------------------------------------------------------
|                                                                             |
|               ----> ADVICE to this user running VASP <----                  |
|                                                                             |
|     You enforced a specific xc type in the INCAR file but a different       |
|     type was found in the POTCAR file.                                      |
|     I HOPE YOU KNOW WHAT YOU ARE DOING!                                     |
|                                                                             |
 -----------------------------------------------------------------------------

  PAW_PBE C_h 06Feb2004                 :
 energy of atom  1       EATOM= -147.1560
 kinetic energy error for atom=    0.0031 (will be added to EATOM!!)
  PAW_PBE H_h 06Feb2004                 :
 energy of atom  2       EATOM=  -12.4884
 kinetic energy error for atom=    0.0006 (will be added to EATOM!!)
  PAW_PBE O_h 06Feb2004                 :
 energy of atom  3       EATOM= -432.3788
 kinetic energy error for atom=    0.0171 (will be added to EATOM!!)


 POSCAR:  C  H  O
  positions in cartesian coordinates
  No initial velocities read in
 exchange correlation table for  LEXCH =       40
   RHO(1)=    0.500       N(1)  =     2000
   RHO(2)=  100.500       N(2)  =     4000

 VTST: version 4.1, (05/19/21)

 CHAIN: initializing optimizer
 
 OPT: Using VASP Dynamics algorithm
 CHAIN: Read ICHAIN            0

 POSCAR:  C  H  O
  positions in cartesian coordinates
  No initial velocities read in



--------------------------------------------------------------------------------------------------------


 ion  position               nearest neighbor table
   1  0.441  0.506  0.500-   3 1.09   5 1.10   4 1.10   2 1.50
   2  0.510  0.505  0.500-   7 1.21   8 1.37   1 1.50
   3  0.425  0.553  0.500-   1 1.09
   4  0.424  0.482  0.460-   1 1.10
   5  0.424  0.482  0.540-   1 1.10
   6  0.576  0.451  0.500-   8 0.98
   7  0.542  0.549  0.500-   2 1.21
   8  0.532  0.447  0.500-   6 0.98   2 1.37

  LATTYP: Found a simple cubic cell.
 ALAT       =    22.0000000000
  
  Lattice vectors:
  
 A1 = (  22.0000000000,   0.0000000000,   0.0000000000)
 A2 = (   0.0000000000,  22.0000000000,   0.0000000000)
 A3 = (   0.0000000000,   0.0000000000,  22.0000000000)


Analysis of symmetry for initial positions (statically):
=====================================================================
 Subroutine PRICEL returns:
 Original cell was already a primitive cell.
 

 Routine SETGRP: Setting up the symmetry group for a 
 simple cubic supercell.


 Subroutine GETGRP returns: Found  1 space group operations
 (whereof  1 operations were pure point group operations)
 out of a pool of 48 trial point group operations.


The static configuration has the point symmetry C_1 .


Analysis of symmetry for dynamics (positions and initial velocities):
=====================================================================
 Subroutine PRICEL returns:
 Original cell was already a primitive cell.
 

 Routine SETGRP: Setting up the symmetry group for a 
 simple cubic supercell.


 Subroutine GETGRP returns: Found  1 space group operations
 (whereof  1 operations were pure point group operations)
 out of a pool of 48 trial point group operations.


The dynamic configuration has the point symmetry C_1 .


 Subroutine INISYM returns: Found  1 space group operations
 (whereof  1 operations are pure point group operations),
 and found     1 'primitive' translations


----------------------------------------------------------------------------------------

                                     Primitive cell                                     

  volume of cell :   10648.0000

  direct lattice vectors                    reciprocal lattice vectors
    22.000000000  0.000000000  0.000000000     0.045454545  0.000000000  0.000000000
     0.000000000 22.000000000  0.000000000     0.000000000  0.045454545  0.000000000
     0.000000000  0.000000000 22.000000000     0.000000000  0.000000000  0.045454545

  length of vectors
    22.000000000 22.000000000 22.000000000     0.045454545  0.045454545  0.045454545

  position of ions in fractional coordinates (direct lattice)
     0.441219545  0.505920909  0.500013636
     0.509527273  0.505352727  0.500058182
     0.425007273  0.552750000  0.500000909
     0.424083636  0.481861818  0.459902273
     0.424055000  0.481852727  0.540097727
     0.575945000  0.450870909  0.500036364
     0.542467273  0.549453636  0.500040455
     0.531682273  0.447250000  0.500162273

  ion indices of the primitive-cell ions
   primitive index   ion index
                 1           1
                 2           2
                 3           3
                 4           4
                 5           5
                 6           6
                 7           7
                 8           8

----------------------------------------------------------------------------------------



 KPOINTS: auto                                    

Automatic generation of k-mesh.
 Grid dimensions read from file:
 generate k-points for:    1    1    1

 Generating k-lattice:

  Cartesian coordinates                     Fractional coordinates (reciprocal lattice)
     0.045454545  0.000000000  0.000000000     1.000000000  0.000000000  0.000000000
     0.000000000  0.045454545  0.000000000     0.000000000  1.000000000  0.000000000
     0.000000000  0.000000000  0.045454545     0.000000000  0.000000000  1.000000000

  Length of vectors
     0.045454545  0.045454545  0.045454545

  Shift w.r.t. Gamma in fractional coordinates (k-lattice)
     0.000000000  0.000000000  0.000000000

 
 Subroutine IBZKPT returns following result:
 ===========================================
 
 Found      1 irreducible k-points:
 
 Following reciprocal coordinates:
            Coordinates               Weight
  0.000000  0.000000  0.000000      1.000000
 
 Following cartesian coordinates:
            Coordinates               Weight
  0.000000  0.000000  0.000000      1.000000
 


--------------------------------------------------------------------------------------------------------




 Dimension of arrays:
   k-points           NKPTS =      1   k-points in BZ     NKDIM =      1   number of bands    NBANDS=     20
   number of dos      NEDOS =    301   number of ions     NIONS =      8
   non local maximal  LDIM  =      4   non local SUM 2l+1 LMDIM =      8
   total plane-waves  NPLWV = ******
   max r-space proj   IRMAX =      1   max aug-charges    IRDMAX=   9667
   dimension x,y,z NGX =   240 NGY =  240 NGZ =  240
   dimension x,y,z NGXF=   480 NGYF=  480 NGZF=  480
   support grid    NGXF=   480 NGYF=  480 NGZF=  480
   ions per type =               2   4   2
   NGX,Y,Z   is equivalent  to a cutoff of  18.14, 18.14, 18.14 a.u.
   NGXF,Y,Z  is equivalent  to a cutoff of  36.27, 36.27, 36.27 a.u.

 SYSTEM =  unknown system                          
 POSCAR =   C  H  O                                

 Startparameter for this run:
   NWRITE =      2    write-flag & timer
   PREC   = accura    normal or accurate (medium, high low for compatibility)
   ISTART =      0    job   : 0-new  1-cont  2-samecut
   ICHARG =      2    charge: 1-file 2-atom 10-const
   ISPIN  =      1    spin polarized calculation?
   LNONCOLLINEAR =      F non collinear calculations
   LSORBIT =      F    spin-orbit coupling
   INIWAV =      1    electr: 0-lowe 1-rand  2-diag
   LASPH  =      F    aspherical Exc in radial PAW
 Electronic Relaxation 1
   ENCUT  = 1000.0 eV  73.50 Ry    8.57 a.u.  56.73 56.73 56.73*2*pi/ulx,y,z
   ENINI  = 1000.0     initial cutoff
   ENAUG  = 1000.0 eV  augmentation charge cutoff
   NELM   =     60;   NELMIN=  2; NELMDL= -5     # of ELM steps 
   EDIFF  = 0.1E-06   stopping-criterion for ELM
   LREAL  =      F    real-space projection
   NLSPLINE    = F    spline interpolate recip. space projectors
   LCOMPAT=      F    compatible to vasp.4.4
   GGA_COMPAT  = T    GGA compatible to vasp.4.4-vasp.4.6
   LMAXPAW     = -100 max onsite density
   LMAXMIX     =    2 max onsite mixed and CHGCAR
   VOSKOWN=      0    Vosko Wilk Nusair interpolation
   ROPT   =    0.00000   0.00000   0.00000
 Ionic relaxation
   EDIFFG = 0.1E-05   stopping-criterion for IOM
   NSW    =      0    number of steps for IOM
   NBLOCK =      1;   KBLOCK =      1    inner block; outer block 
   IBRION =     -1    ionic relax: 0-MD 1-quasi-New 2-CG
   NFREE  =      0    steps in history (QN), initial steepest desc. (CG)
   ISIF   =      0    stress and relaxation
   IWAVPR =     10    prediction:  0-non 1-charg 2-wave 3-comb
   ISYM   =      2    0-nonsym 1-usesym 2-fastsym
   LCORR  =      T    Harris-Foulkes like correction to forces

   POTIM  = 0.5000    time-step for ionic-motion
   TEIN   =    0.0    initial temperature
   TEBEG  =    0.0;   TEEND  =   0.0 temperature during run
   SMASS  =  -3.00    Nose mass-parameter (am)
   estimated Nose-frequenzy (Omega)   =  0.10E-29 period in steps = 0.13E+47 mass=  -0.111E-25a.u.
   SCALEE = 1.0000    scale energy and forces
   NPACO  =    256;   APACO  = 10.0  distance and # of slots for P.C.
   PSTRESS=    0.0 pullay stress

  Mass of Ions in am
   POMASS =  12.01  1.00 16.00
  Ionic Valenz
   ZVAL   =   4.00  1.00  6.00
  Atomic Wigner-Seitz radii
   RWIGS  =  -1.00 -1.00 -1.00
  virtual crystal weights 
   VCA    =   1.00  1.00  1.00
   NELECT =      24.0000    total number of electrons
   NUPDOWN=      -1.0000    fix difference up-down

 DOS related values:
   EMIN   =  10.00;   EMAX   =-10.00  energy-range for DOS
   EFERMI =   0.00;   METHOD = LEGACY      
   ISMEAR =     0;   SIGMA  =   0.01  broadening in eV -4-tet -1-fermi 0-gaus

 Electronic relaxation 2 (details)
   IALGO  =     58    algorithm
   LDIAG  =      T    sub-space diagonalisation (order eigenvalues)
   LSUBROT=      F    optimize rotation matrix (better conditioning)
   TURBO    =      0    0=normal 1=particle mesh
   IRESTART =      0    0=no restart 2=restart with 2 vectors
   NREBOOT  =      0    no. of reboots
   NMIN     =      0    reboot dimension
   EREF     =   0.00    reference energy to select bands
   IMIX   =      4    mixing-type and parameters
     AMIX     =   0.40;   BMIX     =  1.00
     AMIX_MAG =   1.60;   BMIX_MAG =  1.00
     AMIN     =   0.10
     WC   =   100.;   INIMIX=   1;  MIXPRE=   1;  MAXMIX= -45

 Intra band minimization:
   WEIMIN = 0.0000     energy-eigenvalue tresh-hold
   EBREAK =  0.13E-08  absolut break condition
   DEPER  =   0.30     relativ break condition  

   TIME   =   0.40     timestep for ELM

  volume/ion in A,a.u.               =    1331.00      8982.03
  Fermi-wavevector in a.u.,A,eV,Ry     =   0.214646  0.405622  0.626859  0.046073
  Thomas-Fermi vector in A             =   0.987905

 Write flags
   LWAVE        =      F    write WAVECAR
   LDOWNSAMPLE  =      F    k-point downsampling of WAVECAR
   LCHARG       =      F    write CHGCAR
   LVTOT        =      F    write LOCPOT, total local potential
   LVHAR        =      F    write LOCPOT, Hartree potential only
   LELF         =      F    write electronic localiz. function (ELF)
   LORBIT       =      0    0 simple, 1 ext, 2 COOP (PROOUT), +10 PAW based schemes


 Dipole corrections
   LMONO  =      F    monopole corrections only (constant potential shift)
   LDIPOL =      F    correct potential (dipole corrections)
   IDIPOL =      0    1-x, 2-y, 3-z, 4-all directions 
   EPSILON=  1.0000000 bulk dielectric constant

 Exchange correlation treatment:
   GGA     =    RE    GGA type
   LEXCH   =    40    internal setting for exchange type
   LIBXC   =     F    Libxc                    
   VOSKOWN =     0    Vosko Wilk Nusair interpolation
   LHFCALC =     F    Hartree Fock is set to
   LHFONE  =     F    Hartree Fock one center treatment
   AEXX    =    0.0000 exact exchange contribution

 Linear response parameters
   LEPSILON=     F    determine dielectric tensor
   LRPA    =     F    only Hartree local field effects (RPA)
   LNABLA  =     F    use nabla operator in PAW spheres
   LVEL    =     F    velocity operator in full k-point grid
   CSHIFT  =0.1000    complex shift for real part using Kramers Kronig
   OMEGAMAX=  -1.0    maximum frequency
   DEG_THRESHOLD= 0.2000000E-02 threshold for treating states as degnerate
   RTIME   =   -0.100 relaxation time in fs
  (WPLASMAI=    0.000 imaginary part of plasma frequency in eV, 0.658/RTIME)
   DFIELD  = 0.0000000 0.0000000 0.0000000 field for delta impulse in time

  Optional k-point grid parameters
   LKPOINTS_OPT  =     F    use optional k-point grid
   KPOINTS_OPT_MODE=     1    mode for optional k-point grid

 Orbital magnetization related:
   ORBITALMAG=     F  switch on orbital magnetization
   LCHIMAG   =     F  perturbation theory with respect to B field
   DQ        =  0.001000  dq finite difference perturbation B field
   LLRAUG    =     F  two centre corrections for induced B field
   LBONE     =     F  B-component reconstruction in AE one-centre
   LVGVCALC  =     T  calculate vGv susceptibility
   LVGVAPPL  =     F  apply vGv susceptibility instead of pGv for G=0

 Random number generation:
   RANDOM_GENERATOR = DEFAULT
   PCG_SEED         = not used


--------------------------------------------------------------------------------------------------------


 Static calculation
 charge density and potential will be updated during run
 non-spin polarized calculation
 Conjugate gradient for all bands (Freysoldt, et al. PRB 79, 241103 (2009))
 preconditioned conjugated gradient                                        
 perform sub-space diagonalisation
    before iterative eigenvector-optimisation
 modified Broyden-mixing scheme, WC =      100.0
 initial mixing is a Kerker type mixing with AMIX =  0.4000 and BMIX =      1.0000
 Hartree-type preconditioning will be used
 using additional bands            8
 reciprocal scheme for non local part
 use partial core corrections
 no Harris-corrections to forces 
 use gradient corrections 
 use of overlap-Matrix (Vanderbilt PP)
 Gauss-broadening in eV      SIGMA  =   0.01


--------------------------------------------------------------------------------------------------------


  energy-cutoff  :     1000.00
  volume of cell :    10648.00
      direct lattice vectors                 reciprocal lattice vectors
    22.000000000  0.000000000  0.000000000     0.045454545  0.000000000  0.000000000
     0.000000000 22.000000000  0.000000000     0.000000000  0.045454545  0.000000000
     0.000000000  0.000000000 22.000000000     0.000000000  0.000000000  0.045454545

  length of vectors
    22.000000000 22.000000000 22.000000000     0.045454545  0.045454545  0.045454545



 k-points in units of 2pi/SCALE and weight: auto                                    
   0.00000000  0.00000000  0.00000000       1.000

 k-points in reciprocal lattice and weights: auto                                    
   0.00000000  0.00000000  0.00000000       1.000

 position of ions in fractional coordinates (direct lattice) 
   0.44121955  0.50592091  0.50001364
   0.50952727  0.50535273  0.50005818
   0.42500727  0.55275000  0.50000091
   0.42408364  0.48186182  0.45990227
   0.42405500  0.48185273  0.54009773
   0.57594500  0.45087091  0.50003636
   0.54246727  0.54945364  0.50004045
   0.53168227  0.44725000  0.50016227

 position of ions in cartesian coordinates  (Angst):
   9.70683000 11.13026000 11.00030000
  11.20960000 11.11776000 11.00128000
   9.35016000 12.16050000 11.00002000
   9.32984000 10.60096000 10.11785000
   9.32921000 10.60076000 11.88215000
  12.67079000  9.91916000 11.00080000
  11.93428000 12.08798000 11.00089000
  11.69701000  9.83950000 11.00357000



--------------------------------------------------------------------------------------------------------


 use parallel FFT for orbitals z direction half grid
 k-point   1 :   0.0000 0.0000 0.0000  plane waves:  381993

 maximum and minimum number of plane-waves per node :     11948    11928

 maximum number of plane-waves:    381993
 maximum index in each direction: 
   IXMAX=   56   IYMAX=   56   IZMAX=   56
   IXMIN=  -56   IYMIN=  -56   IZMIN=    0


 parallel 3D FFT for wavefunctions:
    minimum data exchange during FFTs selected (reduces bandwidth)
 parallel 3D FFT for charge:
    minimum data exchange during FFTs selected (reduces bandwidth)


 total amount of memory used by VASP MPI-rank0   154394. kBytes
=======================================================================

   base      :      30000. kBytes
   nonl-proj :       3818. kBytes
   fftplans  :      40084. kBytes
   grid      :      77629. kBytes
   one-center:          1. kBytes
   wavefun   :       2862. kBytes

     INWAV:  cpu time      0.0000: real time      0.0000
 Broyden mixing: mesh for mixing (old mesh)
   NGX =113   NGY =113   NGZ =113
  (NGX  =480   NGY  =480   NGZ  =480)
  gives a total of ****** points

 initial charge density was supplied:
 charge density of overlapping atoms calculated
 number of electron      24.0000000 magnetization 
 keeping initial charge density in first step


--------------------------------------------------------------------------------------------------------


 Maximum index for augmentation-charges          527 (set IRDMAX)


--------------------------------------------------------------------------------------------------------


 First call to EWALD:  gamma=   0.081
 Maximum number of real-space cells 3x 3x 3
 Maximum number of reciprocal cells 3x 3x 3

    FEWALD:  cpu time      0.0030: real time      0.0031


--------------------------------------- Ionic step        1  -------------------------------------------




--------------------------------------- Iteration      1(   1)  ---------------------------------------


    POTLOK:  cpu time      1.4065: real time      1.4074
    SETDIJ:  cpu time      0.0123: real time      0.0124
    TRIAL :  cpu time      1.1594: real time      1.1613
    CORREC:  cpu time      0.0008: real time      0.0009
    --------------------------------------------
      LOOP:  cpu time      2.5930: real time      2.5961

 eigenvalue-minimisations  :    56
 total energy-change (2. order) : 0.2205639E+03  (-0.5525816E+03)
 number of electron      24.0000000 magnetization 
 augmentation part       24.0000000 magnetization 

 Free energy of the ion-electron system (eV)
  ---------------------------------------------------
  alpha Z        PSCENC =         0.15373622
  Ewald energy   TEWEN  =      1306.86434740
  -Hartree energ DENC   =     -2223.11047284
  -exchange      EXHF   =         0.00000000
  -V(xc)+E(xc)   XCENC  =        74.57469226
  PAW double counting   =       926.96294665     -917.37109620
  entropy T*S    EENTRO =        -0.00000000
  eigenvalues    EBANDS =      -155.81059933
  atomic energy  EATOM  =      1208.30035513
  ---------------------------------------------------
  free energy    TOTEN  =       220.56390929 eV

  energy without entropy =      220.56390929  energy(sigma->0) =      220.56390929


--------------------------------------------------------------------------------------------------------




--------------------------------------- Iteration      1(   2)  ---------------------------------------


    TRIAL :  cpu time      1.1822: real time      1.1829
    CORREC:  cpu time      0.0003: real time      0.0003
    --------------------------------------------
      LOOP:  cpu time      1.1976: real time      1.2116

 eigenvalue-minimisations  :    60
 total energy-change (2. order) :-0.1004567E+03  (-0.9887643E+02)
 number of electron      24.0000000 magnetization 
 augmentation part       24.0000000 magnetization 

 Free energy of the ion-electron system (eV)
  ---------------------------------------------------
  alpha Z        PSCENC =         0.15373622
  Ewald energy   TEWEN  =      1306.86434740
  -Hartree energ DENC   =     -2223.11047284
  -exchange      EXHF   =         0.00000000
  -V(xc)+E(xc)   XCENC  =        74.57469226
  PAW double counting   =       926.96294665     -917.37109620
  entropy T*S    EENTRO =        -0.00000035
  eigenvalues    EBANDS =      -256.26725100
  atomic energy  EATOM  =      1208.30035513
  ---------------------------------------------------
  free energy    TOTEN  =       120.10725727 eV

  energy without entropy =      120.10725763  energy(sigma->0) =      120.10725745


--------------------------------------------------------------------------------------------------------




--------------------------------------- Iteration      1(   3)  ---------------------------------------


    TRIAL :  cpu time      1.3551: real time      1.3555
    CORREC:  cpu time      0.0001: real time      0.0001
    --------------------------------------------
      LOOP:  cpu time      1.3674: real time      1.3836

 eigenvalue-minimisations  :    72
 total energy-change (2. order) :-0.1196421E+03  (-0.1173613E+03)
 number of electron      24.0000000 magnetization 
 augmentation part       24.0000000 magnetization 

 Free energy of the ion-electron system (eV)
  ---------------------------------------------------
  alpha Z        PSCENC =         0.15373622
  Ewald energy   TEWEN  =      1306.86434740
  -Hartree energ DENC   =     -2223.11047284
  -exchange      EXHF   =         0.00000000
  -V(xc)+E(xc)   XCENC  =        74.57469226
  PAW double counting   =       926.96294665     -917.37109620
  entropy T*S    EENTRO =        -0.00000000
  eigenvalues    EBANDS =      -375.90937965
  atomic energy  EATOM  =      1208.30035513
  ---------------------------------------------------
  free energy    TOTEN  =         0.46512897 eV

  energy without entropy =        0.46512897  energy(sigma->0) =        0.46512897


--------------------------------------------------------------------------------------------------------




--------------------------------------- Iteration      1(   4)  ---------------------------------------


    TRIAL :  cpu time      1.1199: real time      1.1203
    CORREC:  cpu time      0.0001: real time      0.0001
    --------------------------------------------
      LOOP:  cpu time      1.1482: real time      1.1492

 eigenvalue-minimisations  :    56
 total energy-change (2. order) :-0.4810120E+02  (-0.4804478E+02)
 number of electron      24.0000000 magnetization 
 augmentation part       24.0000000 magnetization 

 Free energy of the ion-electron system (eV)
  ---------------------------------------------------
  alpha Z        PSCENC =         0.15373622
  Ewald energy   TEWEN  =      1306.86434740
  -Hartree energ DENC   =     -2223.11047284
  -exchange      EXHF   =         0.00000000
  -V(xc)+E(xc)   XCENC  =        74.57469226
  PAW double counting   =       926.96294665     -917.37109620
  entropy T*S    EENTRO =        -0.00000000
  eigenvalues    EBANDS =      -424.01057904
  atomic energy  EATOM  =      1208.30035513
  ---------------------------------------------------
  free energy    TOTEN  =       -47.63607042 eV

  energy without entropy =      -47.63607042  energy(sigma->0) =      -47.63607042


--------------------------------------------------------------------------------------------------------




--------------------------------------- Iteration      1(   5)  ---------------------------------------


    TRIAL :  cpu time      1.3556: real time      1.3561
    CORREC:  cpu time      0.0001: real time      0.0001
    CHARGE:  cpu time      0.2976: real time      0.2979
    --------------------------------------------
      LOOP:  cpu time      1.6652: real time      1.6833

 eigenvalue-minimisations  :    72
 total energy-change (2. order) :-0.3182859E+01  (-0.3181401E+01)
 number of electron      24.0000000 magnetization 
 augmentation part        0.1569467 magnetization 

 Free energy of the ion-electron system (eV)
  ---------------------------------------------------
  alpha Z        PSCENC =         0.15373622
  Ewald energy   TEWEN  =      1306.86434740
  -Hartree energ DENC   =     -2223.11047284
  -exchange      EXHF   =         0.00000000
  -V(xc)+E(xc)   XCENC  =        74.57469226
  PAW double counting   =       926.96294665     -917.37109620
  entropy T*S    EENTRO =        -0.00000000
  eigenvalues    EBANDS =      -427.19343849
  atomic energy  EATOM  =      1208.30035513
  ---------------------------------------------------
  free energy    TOTEN  =       -50.81892986 eV

  energy without entropy =      -50.81892986  energy(sigma->0) =      -50.81892986


--------------------------------------------------------------------------------------------------------




--------------------------------------- Iteration      1(   6)  ---------------------------------------


    POTLOK:  cpu time      1.4453: real time      1.4464
    SETDIJ:  cpu time      0.0034: real time      0.0034
    TRIAL :  cpu time      0.6216: real time      0.6222
    CORREC:  cpu time      1.8732: real time      1.8743
    CHARGE:  cpu time      0.2481: real time      0.2485
    --------------------------------------------
      LOOP:  cpu time      4.2076: real time      4.2246

 eigenvalue-minimisations  :     0
 total energy-change (2. order) : 0.9931783E+01  (-0.4355097E+01)
 number of electron      24.0000000 magnetization 
 augmentation part        0.1160778 magnetization 

 Free energy of the ion-electron system (eV)
  ---------------------------------------------------
  alpha Z        PSCENC =         0.15373622
  Ewald energy   TEWEN  =      1306.86434740
  -Hartree energ DENC   =     -2409.87081100
  -exchange      EXHF   =         0.00000000
  -V(xc)+E(xc)   XCENC  =        83.63395615
  PAW double counting   =     10484.66875391   -10476.37585431
  entropy T*S    EENTRO =        -0.00000000
  eigenvalues    EBANDS =      -238.26163044
  atomic energy  EATOM  =      1208.30035513
  ---------------------------------------------------
  free energy    TOTEN  =       -40.88714694 eV

  energy without entropy =      -40.88714694  energy(sigma->0) =      -40.88714694


--------------------------------------------------------------------------------------------------------




--------------------------------------- Iteration      1(   7)  ---------------------------------------


    POTLOK:  cpu time      1.4503: real time      1.4508
    SETDIJ:  cpu time      0.0047: real time      0.0047
    TRIAL :  cpu time      0.6100: real time      0.6104
    CORREC:  cpu time      1.8631: real time      1.8636
    CHARGE:  cpu time      0.2472: real time      0.2476
    --------------------------------------------
      LOOP:  cpu time      4.2050: real time      4.2069

 eigenvalue-minimisations  :     0
 total energy-change (2. order) :-0.4411439E+01  (-0.5852612E+00)
 number of electron      24.0000000 magnetization 
 augmentation part        0.0917752 magnetization 

 Free energy of the ion-electron system (eV)
  ---------------------------------------------------
  alpha Z        PSCENC =         0.15373622
  Ewald energy   TEWEN  =      1306.86434740
  -Hartree energ DENC   =     -2316.70681119
  -exchange      EXHF   =         0.00000000
  -V(xc)+E(xc)   XCENC  =        79.24027790
  PAW double counting   =     13168.98080649   -13160.03772207
  entropy T*S    EENTRO =        -0.00000000
  eigenvalues    EBANDS =      -332.09357605
  atomic energy  EATOM  =      1208.30035513
  ---------------------------------------------------
  free energy    TOTEN  =       -45.29858616 eV

  energy without entropy =      -45.29858616  energy(sigma->0) =      -45.29858616


--------------------------------------------------------------------------------------------------------




--------------------------------------- Iteration      1(   8)  ---------------------------------------


    POTLOK:  cpu time      1.4549: real time      1.4554
    SETDIJ:  cpu time      0.0032: real time      0.0032
    TRIAL :  cpu time      0.6088: real time      0.6092
    CORREC:  cpu time      1.8663: real time      1.8673
    CHARGE:  cpu time      0.2475: real time      0.2475
    --------------------------------------------
      LOOP:  cpu time      4.1987: real time      4.2142

 eigenvalue-minimisations  :     0
 total energy-change (2. order) :-0.5871154E+00  (-0.2112482E+00)
 number of electron      24.0000000 magnetization 
 augmentation part        0.0875267 magnetization 

 Free energy of the ion-electron system (eV)
  ---------------------------------------------------
  alpha Z        PSCENC =         0.15373622
  Ewald energy   TEWEN  =      1306.86434740
  -Hartree energ DENC   =     -2321.02686683
  -exchange      EXHF   =         0.00000000
  -V(xc)+E(xc)   XCENC  =        79.32275653
  PAW double counting   =     13130.21662534   -13121.17320969
  entropy T*S    EENTRO =        -0.00000000
  eigenvalues    EBANDS =      -328.54344570
  atomic energy  EATOM  =      1208.30035513
  ---------------------------------------------------
  free energy    TOTEN  =       -45.88570161 eV

  energy without entropy =      -45.88570161  energy(sigma->0) =      -45.88570161


--------------------------------------------------------------------------------------------------------




--------------------------------------- Iteration      1(   9)  ---------------------------------------


    POTLOK:  cpu time      1.4503: real time      1.4506
    SETDIJ:  cpu time      0.0025: real time      0.0025
    TRIAL :  cpu time      0.6094: real time      0.6104
    CORREC:  cpu time      1.8644: real time      1.8655
    CHARGE:  cpu time      0.2470: real time      0.2470
    --------------------------------------------
      LOOP:  cpu time      4.1874: real time      4.2058

 eigenvalue-minimisations  :     0
 total energy-change (2. order) :-0.2113584E+00  (-0.8491741E-01)
 number of electron      24.0000000 magnetization 
 augmentation part        0.0865973 magnetization 

 Free energy of the ion-electron system (eV)
  ---------------------------------------------------
  alpha Z        PSCENC =         0.15373622
  Ewald energy   TEWEN  =      1306.86434740
  -Hartree energ DENC   =     -2322.89202662
  -exchange      EXHF   =         0.00000000
  -V(xc)+E(xc)   XCENC  =        79.35314563
  PAW double counting   =     13337.68310791   -13328.61014649
  entropy T*S    EENTRO =        -0.00000000
  eigenvalues    EBANDS =      -326.94957920
  atomic energy  EATOM  =      1208.30035513
  ---------------------------------------------------
  free energy    TOTEN  =       -46.09706002 eV

  energy without entropy =      -46.09706002  energy(sigma->0) =      -46.09706002


--------------------------------------------------------------------------------------------------------




--------------------------------------- Iteration      1(  10)  ---------------------------------------


    POTLOK:  cpu time      1.4460: real time      1.4471
    SETDIJ:  cpu time      0.0055: real time      0.0055
    TRIAL :  cpu time      0.6093: real time      0.6093
    CORREC:  cpu time      1.8654: real time      1.8666
    CHARGE:  cpu time      0.2466: real time      0.2466
    --------------------------------------------
      LOOP:  cpu time      4.2037: real time      4.2064

 eigenvalue-minimisations  :     0
 total energy-change (2. order) :-0.8432292E-01  (-0.3191824E-01)
 number of electron      24.0000000 magnetization 
 augmentation part        0.0877248 magnetization 

 Free energy of the ion-electron system (eV)
  ---------------------------------------------------
  alpha Z        PSCENC =         0.15373622
  Ewald energy   TEWEN  =      1306.86434740
  -Hartree energ DENC   =     -2320.26324016
  -exchange      EXHF   =         0.00000000
  -V(xc)+E(xc)   XCENC  =        79.27180071
  PAW double counting   =     13202.55235437   -13193.46903115
  entropy T*S    EENTRO =        -0.00000000
  eigenvalues    EBANDS =      -329.59170546
  atomic energy  EATOM  =      1208.30035513
  ---------------------------------------------------
  free energy    TOTEN  =       -46.18138294 eV

  energy without entropy =      -46.18138294  energy(sigma->0) =      -46.18138294


--------------------------------------------------------------------------------------------------------




--------------------------------------- Iteration      1(  11)  ---------------------------------------


    POTLOK:  cpu time      1.4657: real time      1.4665
    SETDIJ:  cpu time      0.0016: real time      0.0016
    TRIAL :  cpu time      0.6121: real time      0.6121
    CORREC:  cpu time      1.8560: real time      1.8571
    CHARGE:  cpu time      0.2469: real time      0.2475
    --------------------------------------------
      LOOP:  cpu time      4.1998: real time      4.2172

 eigenvalue-minimisations  :     0
 total energy-change (2. order) :-0.3172411E-01  (-0.1051985E-01)
 number of electron      24.0000000 magnetization 
 augmentation part        0.0883753 magnetization 

 Free energy of the ion-electron system (eV)
  ---------------------------------------------------
  alpha Z        PSCENC =         0.15373622
  Ewald energy   TEWEN  =      1306.86434740
  -Hartree energ DENC   =     -2319.45873152
  -exchange      EXHF   =         0.00000000
  -V(xc)+E(xc)   XCENC  =        79.26580105
  PAW double counting   =     12986.41369850   -12977.34362665
  entropy T*S    EENTRO =        -0.00000000
  eigenvalues    EBANDS =      -330.40868716
  atomic energy  EATOM  =      1208.30035513
  ---------------------------------------------------
  free energy    TOTEN  =       -46.21310705 eV

  energy without entropy =      -46.21310705  energy(sigma->0) =      -46.21310705


--------------------------------------------------------------------------------------------------------




--------------------------------------- Iteration      1(  12)  ---------------------------------------


    POTLOK:  cpu time      1.4373: real time      1.4378
    SETDIJ:  cpu time      0.0038: real time      0.0038
    TRIAL :  cpu time      0.6091: real time      0.6095
    CORREC:  cpu time      1.8316: real time      1.8319
    CHARGE:  cpu time      0.2483: real time      0.2487
    --------------------------------------------
      LOOP:  cpu time      4.1455: real time      4.1633

 eigenvalue-minimisations  :     0
 total energy-change (2. order) :-0.1048400E-01  (-0.2992256E-02)
 number of electron      24.0000000 magnetization 
 augmentation part        0.0882130 magnetization 

 Free energy of the ion-electron system (eV)
  ---------------------------------------------------
  alpha Z        PSCENC =         0.15373622
  Ewald energy   TEWEN  =      1306.86434740
  -Hartree energ DENC   =     -2318.87884966
  -exchange      EXHF   =         0.00000000
  -V(xc)+E(xc)   XCENC  =        79.23592487
  PAW double counting   =     12966.03974917   -12956.97315052
  entropy T*S    EENTRO =        -0.00000000
  eigenvalues    EBANDS =      -330.96570366
  atomic energy  EATOM  =      1208.30035513
  ---------------------------------------------------
  free energy    TOTEN  =       -46.22359105 eV

  energy without entropy =      -46.22359105  energy(sigma->0) =      -46.22359105


--------------------------------------------------------------------------------------------------------




--------------------------------------- Iteration      1(  13)  ---------------------------------------


    POTLOK:  cpu time      1.4309: real time      1.4312
    SETDIJ:  cpu time      0.0024: real time      0.0024
    TRIAL :  cpu time      0.6102: real time      0.6105
    CORREC:  cpu time      1.8126: real time      1.8134
    CHARGE:  cpu time      0.2469: real time      0.2469
    --------------------------------------------
      LOOP:  cpu time      4.1189: real time      4.1361

 eigenvalue-minimisations  :     0
 total energy-change (2. order) :-0.2989693E-02  (-0.9406947E-03)
 number of electron      24.0000000 magnetization 
 augmentation part        0.0882605 magnetization 

 Free energy of the ion-electron system (eV)
  ---------------------------------------------------
  alpha Z        PSCENC =         0.15373622
  Ewald energy   TEWEN  =      1306.86434740
  -Hartree energ DENC   =     -2318.69125603
  -exchange      EXHF   =         0.00000000
  -V(xc)+E(xc)   XCENC  =        79.22363910
  PAW double counting   =     13003.97492293   -12994.90661212
  entropy T*S    EENTRO =        -0.00000000
  eigenvalues    EBANDS =      -331.14571336
  atomic energy  EATOM  =      1208.30035513
  ---------------------------------------------------
  free energy    TOTEN  =       -46.22658074 eV

  energy without entropy =      -46.22658074  energy(sigma->0) =      -46.22658074


--------------------------------------------------------------------------------------------------------




--------------------------------------- Iteration      1(  14)  ---------------------------------------


    POTLOK:  cpu time      1.4059: real time      1.4062
    SETDIJ:  cpu time      0.0057: real time      0.0057
    TRIAL :  cpu time      0.6107: real time      0.6112
    CORREC:  cpu time      1.8042: real time      1.8050
    CHARGE:  cpu time      0.2475: real time      0.2475
    --------------------------------------------
      LOOP:  cpu time      4.0917: real time      4.1074

 eigenvalue-minimisations  :     0
 total energy-change (2. order) :-0.9409583E-03  (-0.3059455E-03)
 number of electron      24.0000000 magnetization 
 augmentation part        0.0883333 magnetization 

 Free energy of the ion-electron system (eV)
  ---------------------------------------------------
  alpha Z        PSCENC =         0.15373622
  Ewald energy   TEWEN  =      1306.86434740
  -Hartree energ DENC   =     -2318.73162798
  -exchange      EXHF   =         0.00000000
  -V(xc)+E(xc)   XCENC  =        79.22553661
  PAW double counting   =     13021.77480643   -13012.70681704
  entropy T*S    EENTRO =        -0.00000000
  eigenvalues    EBANDS =      -331.10785846
  atomic energy  EATOM  =      1208.30035513
  ---------------------------------------------------
  free energy    TOTEN  =       -46.22752170 eV

  energy without entropy =      -46.22752170  energy(sigma->0) =      -46.22752170


--------------------------------------------------------------------------------------------------------




--------------------------------------- Iteration      1(  15)  ---------------------------------------


    POTLOK:  cpu time      1.4009: real time      1.4014
    SETDIJ:  cpu time      0.0034: real time      0.0034
    TRIAL :  cpu time      0.6092: real time      0.6098
    CORREC:  cpu time      1.8037: real time      1.8046
    CHARGE:  cpu time      0.2470: real time      0.2470
    --------------------------------------------
      LOOP:  cpu time      4.0957: real time      4.0979

 eigenvalue-minimisations  :     0
 total energy-change (2. order) :-0.3066558E-03  (-0.1085118E-03)
 number of electron      24.0000000 magnetization 
 augmentation part        0.0884464 magnetization 

 Free energy of the ion-electron system (eV)
  ---------------------------------------------------
  alpha Z        PSCENC =         0.15373622
  Ewald energy   TEWEN  =      1306.86434740
  -Hartree energ DENC   =     -2318.67940710
  -exchange      EXHF   =         0.00000000
  -V(xc)+E(xc)   XCENC  =        79.22178719
  PAW double counting   =     13018.39068242   -13009.32249018
  entropy T*S    EENTRO =        -0.00000000
  eigenvalues    EBANDS =      -331.15683943
  atomic energy  EATOM  =      1208.30035513
  ---------------------------------------------------
  free energy    TOTEN  =       -46.22782835 eV

  energy without entropy =      -46.22782835  energy(sigma->0) =      -46.22782835


--------------------------------------------------------------------------------------------------------




--------------------------------------- Iteration      1(  16)  ---------------------------------------


    POTLOK:  cpu time      1.3914: real time      1.3920
    SETDIJ:  cpu time      0.0052: real time      0.0056
    TRIAL :  cpu time      0.6113: real time      0.6114
    CORREC:  cpu time      1.8004: real time      1.8014
    CHARGE:  cpu time      0.2474: real time      0.2474
    --------------------------------------------
      LOOP:  cpu time      4.0724: real time      4.0894

 eigenvalue-minimisations  :     0
 total energy-change (2. order) :-0.1090169E-03  (-0.3940116E-04)
 number of electron      24.0000000 magnetization 
 augmentation part        0.0885142 magnetization 

 Free energy of the ion-electron system (eV)
  ---------------------------------------------------
  alpha Z        PSCENC =         0.15373622
  Ewald energy   TEWEN  =      1306.86434740
  -Hartree energ DENC   =     -2318.75101611
  -exchange      EXHF   =         0.00000000
  -V(xc)+E(xc)   XCENC  =        79.22383029
  PAW double counting   =     13003.17688146   -12994.10923509
  entropy T*S    EENTRO =        -0.00000000
  eigenvalues    EBANDS =      -331.08683666
  atomic energy  EATOM  =      1208.30035513
  ---------------------------------------------------
  free energy    TOTEN  =       -46.22793737 eV

  energy without entropy =      -46.22793737  energy(sigma->0) =      -46.22793737


--------------------------------------------------------------------------------------------------------




--------------------------------------- Iteration      1(  17)  ---------------------------------------


    POTLOK:  cpu time      1.3918: real time      1.3926
    SETDIJ:  cpu time      0.0022: real time      0.0022
    TRIAL :  cpu time      0.6124: real time      0.6124
    CORREC:  cpu time      1.7978: real time      1.7985
    CHARGE:  cpu time      0.2474: real time      0.2475
    --------------------------------------------
      LOOP:  cpu time      4.0685: real time      4.0849

 eigenvalue-minimisations  :     0
 total energy-change (2. order) :-0.3978296E-04  (-0.1495340E-04)
 number of electron      24.0000000 magnetization 
 augmentation part        0.0885380 magnetization 

 Free energy of the ion-electron system (eV)
  ---------------------------------------------------
  alpha Z        PSCENC =         0.15373622
  Ewald energy   TEWEN  =      1306.86434740
  -Hartree energ DENC   =     -2318.75583814
  -exchange      EXHF   =         0.00000000
  -V(xc)+E(xc)   XCENC  =        79.22377967
  PAW double counting   =     12991.72707327   -12982.65965027
  entropy T*S    EENTRO =        -0.00000000
  eigenvalues    EBANDS =      -331.08178043
  atomic energy  EATOM  =      1208.30035513
  ---------------------------------------------------
  free energy    TOTEN  =       -46.22797715 eV

  energy without entropy =      -46.22797715  energy(sigma->0) =      -46.22797715


--------------------------------------------------------------------------------------------------------




--------------------------------------- Iteration      1(  18)  ---------------------------------------


    POTLOK:  cpu time      1.3890: real time      1.3898
    SETDIJ:  cpu time      0.0043: real time      0.0043
    TRIAL :  cpu time      0.6133: real time      0.6134
    CORREC:  cpu time      1.8041: real time      1.8049
    CHARGE:  cpu time      0.2470: real time      0.2470
    --------------------------------------------
      LOOP:  cpu time      4.0897: real time      4.0918

 eigenvalue-minimisations  :     0
 total energy-change (2. order) :-0.1508266E-04  (-0.5687137E-05)
 number of electron      24.0000000 magnetization 
 augmentation part        0.0885258 magnetization 

 Free energy of the ion-electron system (eV)
  ---------------------------------------------------
  alpha Z        PSCENC =         0.15373622
  Ewald energy   TEWEN  =      1306.86434740
  -Hartree energ DENC   =     -2318.76355128
  -exchange      EXHF   =         0.00000000
  -V(xc)+E(xc)   XCENC  =        79.22418004
  PAW double counting   =     12988.73771122   -12979.67033227
  entropy T*S    EENTRO =        -0.00000000
  eigenvalues    EBANDS =      -331.07443870
  atomic energy  EATOM  =      1208.30035513
  ---------------------------------------------------
  free energy    TOTEN  =       -46.22799224 eV

  energy without entropy =      -46.22799224  energy(sigma->0) =      -46.22799224


--------------------------------------------------------------------------------------------------------




--------------------------------------- Iteration      1(  19)  ---------------------------------------


    POTLOK:  cpu time      1.3888: real time      1.3896
    SETDIJ:  cpu time      0.0034: real time      0.0034
    TRIAL :  cpu time      0.6104: real time      0.6105
    CORREC:  cpu time      1.7976: real time      1.7990
    CHARGE:  cpu time      0.2477: real time      0.2477
    --------------------------------------------
      LOOP:  cpu time      4.0627: real time      4.0813

 eigenvalue-minimisations  :     0
 total energy-change (2. order) :-0.5622496E-05  (-0.2091750E-05)
 number of electron      24.0000000 magnetization 
 augmentation part        0.0885066 magnetization 

 Free energy of the ion-electron system (eV)
  ---------------------------------------------------
  alpha Z        PSCENC =         0.15373622
  Ewald energy   TEWEN  =      1306.86434740
  -Hartree energ DENC   =     -2318.77686296
  -exchange      EXHF   =         0.00000000
  -V(xc)+E(xc)   XCENC  =        79.22477065
  PAW double counting   =     12990.98748920   -12981.92002210
  entropy T*S    EENTRO =        -0.00000000
  eigenvalues    EBANDS =      -331.06181139
  atomic energy  EATOM  =      1208.30035513
  ---------------------------------------------------
  free energy    TOTEN  =       -46.22799786 eV

  energy without entropy =      -46.22799786  energy(sigma->0) =      -46.22799786


--------------------------------------------------------------------------------------------------------




--------------------------------------- Iteration      1(  20)  ---------------------------------------


    POTLOK:  cpu time      1.3856: real time      1.3864
    SETDIJ:  cpu time      0.0034: real time      0.0034
    TRIAL :  cpu time      0.6103: real time      0.6103
    CORREC:  cpu time      1.7978: real time      1.7986
    CHARGE:  cpu time      0.2471: real time      0.2471
    --------------------------------------------
      LOOP:  cpu time      4.0600: real time      4.0754

 eigenvalue-minimisations  :     0
 total energy-change (2. order) :-0.2019200E-05  (-0.8349551E-06)
 number of electron      24.0000000 magnetization 
 augmentation part        0.0885017 magnetization 

 Free energy of the ion-electron system (eV)
  ---------------------------------------------------
  alpha Z        PSCENC =         0.15373622
  Ewald energy   TEWEN  =      1306.86434740
  -Hartree energ DENC   =     -2318.77236176
  -exchange      EXHF   =         0.00000000
  -V(xc)+E(xc)   XCENC  =        79.22461851
  PAW double counting   =     12993.65925643   -12984.59167651
  entropy T*S    EENTRO =        -0.00000000
  eigenvalues    EBANDS =      -331.06627529
  atomic energy  EATOM  =      1208.30035513
  ---------------------------------------------------
  free energy    TOTEN  =       -46.22799988 eV

  energy without entropy =      -46.22799988  energy(sigma->0) =      -46.22799988


--------------------------------------------------------------------------------------------------------




--------------------------------------- Iteration      1(  21)  ---------------------------------------


    POTLOK:  cpu time      1.3870: real time      1.3876
    SETDIJ:  cpu time      0.0031: real time      0.0031
    TRIAL :  cpu time      0.6104: real time      0.6108
    CORREC:  cpu time      1.8015: real time      1.8021
    CHARGE:  cpu time      0.2487: real time      0.2491
    --------------------------------------------
      LOOP:  cpu time      4.0815: real time      4.0841

 eigenvalue-minimisations  :     0
 total energy-change (2. order) :-0.7621475E-06  (-0.3138116E-06)
 number of electron      24.0000000 magnetization 
 augmentation part        0.0884937 magnetization 

 Free energy of the ion-electron system (eV)
  ---------------------------------------------------
  alpha Z        PSCENC =         0.15373622
  Ewald energy   TEWEN  =      1306.86434740
  -Hartree energ DENC   =     -2318.77846870
  -exchange      EXHF   =         0.00000000
  -V(xc)+E(xc)   XCENC  =        79.22494028
  PAW double counting   =     12994.85384550   -12985.78628887
  entropy T*S    EENTRO =        -0.00000000
  eigenvalues    EBANDS =      -331.06046760
  atomic energy  EATOM  =      1208.30035513
  ---------------------------------------------------
  free energy    TOTEN  =       -46.22800064 eV

  energy without entropy =      -46.22800064  energy(sigma->0) =      -46.22800064


--------------------------------------------------------------------------------------------------------




--------------------------------------- Iteration      1(  22)  ---------------------------------------


    POTLOK:  cpu time      1.3893: real time      1.3898
    SETDIJ:  cpu time      0.0035: real time      0.0035
    TRIAL :  cpu time      0.6107: real time      0.6111
    CORREC:  cpu time      1.7954: real time      1.7958
    CHARGE:  cpu time      0.2475: real time      0.2479
    --------------------------------------------
      LOOP:  cpu time      4.0615: real time      4.0805

 eigenvalue-minimisations  :     0
 total energy-change (2. order) :-0.2965317E-06  (-0.1524383E-06)
 number of electron      24.0000000 magnetization 
 augmentation part        0.0884951 magnetization 

 Free energy of the ion-electron system (eV)
  ---------------------------------------------------
  alpha Z        PSCENC =         0.15373622
  Ewald energy   TEWEN  =      1306.86434740
  -Hartree energ DENC   =     -2318.77240852
  -exchange      EXHF   =         0.00000000
  -V(xc)+E(xc)   XCENC  =        79.22465174
  PAW double counting   =     12995.00786433   -12985.94026592
  entropy T*S    EENTRO =        -0.00000000
  eigenvalues    EBANDS =      -331.06628131
  atomic energy  EATOM  =      1208.30035513
  ---------------------------------------------------
  free energy    TOTEN  =       -46.22800094 eV

  energy without entropy =      -46.22800094  energy(sigma->0) =      -46.22800094


--------------------------------------------------------------------------------------------------------




--------------------------------------- Iteration      1(  23)  ---------------------------------------


    POTLOK:  cpu time      1.3867: real time      1.3873
    SETDIJ:  cpu time      0.0035: real time      0.0035
    TRIAL :  cpu time      0.6097: real time      0.6102
    CORREC:  cpu time      1.8006: real time      1.8009
    CHARGE:  cpu time      0.2476: real time      0.2482
    --------------------------------------------
      LOOP:  cpu time      4.0804: real time      4.0825

 eigenvalue-minimisations  :     0
 total energy-change (2. order) :-0.1410153E-06  (-0.5810969E-07)
 number of electron      24.0000000 magnetization 
 augmentation part        0.0884938 magnetization 

 Free energy of the ion-electron system (eV)
  ---------------------------------------------------
  alpha Z        PSCENC =         0.15373622
  Ewald energy   TEWEN  =      1306.86434740
  -Hartree energ DENC   =     -2318.77537858
  -exchange      EXHF   =         0.00000000
  -V(xc)+E(xc)   XCENC  =        79.22478340
  PAW double counting   =     12994.59983816   -12985.53227683
  entropy T*S    EENTRO =        -0.00000000
  eigenvalues    EBANDS =      -331.06340598
  atomic energy  EATOM  =      1208.30035513
  ---------------------------------------------------
  free energy    TOTEN  =       -46.22800108 eV

  energy without entropy =      -46.22800108  energy(sigma->0) =      -46.22800108


--------------------------------------------------------------------------------------------------------




--------------------------------------- Iteration      1(  24)  ---------------------------------------


    POTLOK:  cpu time      1.3887: real time      1.3893
    SETDIJ:  cpu time      0.0022: real time      0.0022
    TRIAL :  cpu time      0.6094: real time      0.6099
    CORREC:  cpu time      1.7997: real time      1.8006
    EDDIAG:  cpu time      0.2633: real time      0.2636
    CHARGE:  cpu time      0.2463: real time      0.2463
    --------------------------------------------
      LOOP:  cpu time      4.3240: real time      4.3423

 eigenvalue-minimisations  :     0
 total energy-change (2. order) :-0.5531729E-07  (-0.1937867E-07)
 number of electron      24.0000000 magnetization 
 augmentation part        0.0884944 magnetization 

 Free energy of the ion-electron system (eV)
  ---------------------------------------------------
  alpha Z        PSCENC =         0.15373622
  Ewald energy   TEWEN  =      1306.86434740
  -Hartree energ DENC   =     -2318.77340382
  -exchange      EXHF   =         0.00000000
  -V(xc)+E(xc)   XCENC  =        79.22467910
  PAW double counting   =     12994.30615778   -12985.23858703
  entropy T*S    EENTRO =        -0.00000000
  eigenvalues    EBANDS =      -331.06528591
  atomic energy  EATOM  =      1208.30035513
  ---------------------------------------------------
  free energy    TOTEN  =       -46.22800113 eV

  energy without entropy =      -46.22800113  energy(sigma->0) =      -46.22800113


--------------------------------------------------------------------------------------------------------


  average scaling for gradient   1.0186


 average (electrostatic) potential at core
  the test charge radii are     0.5770  0.4325  0.5955
  (the norm of the test charge is              1.0000)
       1 -86.5959       2 -89.5688       3 -45.3787       4 -45.5717       5 -45.5727
       6 -48.6357       7-119.3680       8-120.9157



 E-fermi :  -6.3716     XC(G=0):  -0.1258     alpha+bet : -0.0453

 Fermi energy:        -6.3716125417

 k-point     1 :       0.0000    0.0000    0.0000
  band No.  band energies     occupation 
      1     -27.7261      2.00000
      2     -25.4435      2.00000
      3     -18.8896      2.00000
      4     -15.1292      2.00000
      5     -12.0021      2.00000
      6     -11.5714      2.00000
      7     -11.5072      2.00000
      8     -10.0450      2.00000
      9      -9.5251      2.00000
     10      -9.5194      2.00000
     11      -7.7493      2.00000
     12      -6.4246      2.00000
     13      -1.0926      0.00000
     14      -0.7528      0.00000
     15      -0.1739      0.00000
     16       0.0725      0.00000
     17       0.2023      0.00000
     18       0.2887      0.00000
     19       0.3463      0.00000
     20       0.8528      0.00000


--------------------------------------------------------------------------------------------------------


 soft charge-density along one line, spin component           1
         0         1         2         3         4         5         6         7         8         9
 total charge-density along one line

 pseudopotential strength for first ion, spin component:           1
 12.752  21.461  -0.002   0.000   0.004  -0.003   0.000   0.007
 21.461  36.115  -0.003   0.000   0.007  -0.005   0.000   0.012
 -0.002  -0.003  -3.112   0.000   0.000  -5.579   0.000   0.000
  0.000   0.000   0.000  -3.112  -0.000   0.000  -5.579  -0.000
  0.004   0.007   0.000  -0.000  -3.113   0.000  -0.000  -5.581
 -0.003  -0.005  -5.579   0.000   0.000  -9.979   0.000   0.000
  0.000   0.000   0.000  -5.579  -0.000   0.000  -9.980  -0.000
  0.007   0.012   0.000  -0.000  -5.581   0.000  -0.000  -9.982
 total augmentation occupancy for first ion, spin component:           1
  8.234  -2.914  -0.046   0.001   0.210   0.023  -0.000  -0.128
 -2.914   1.046   0.031  -0.000  -0.149  -0.012   0.000   0.081
 -0.046   0.031   6.354  -0.001   0.013  -2.057   0.000  -0.005
  0.001  -0.000  -0.001   6.225   0.000   0.000  -2.021  -0.000
  0.210  -0.149   0.013   0.000   6.399  -0.005  -0.000  -2.159
  0.023  -0.012  -2.057   0.000  -0.005   0.668  -0.000   0.002
 -0.000   0.000   0.000  -2.021  -0.000  -0.000   0.658   0.000
 -0.128   0.081  -0.005  -0.000  -2.159   0.002   0.000   0.737


------------------------ aborting loop because EDIFF is reached ----------------------------------------


    FORLOC:  cpu time      0.0717: real time      0.0717
    FORNL :  cpu time      0.0287: real time      0.0290
    FORCOR:  cpu time      1.2420: real time      1.2426
    OFIELD:  cpu time      0.0095: real time      0.0095

 ---------------------------------------------------------------------------------------------

         DFTD3 V3.0 Rev 1        
 IVDW         = 11
 DF revpbe    
 parameters
 VDW_S6       =    1.0000
 VDW_S8       =    1.0100
 VDW_SR       =    0.9230
 rs18     =    1.0000
 alpha6   =   14.0000
 alpha8   =   16.0000
 k1-k3    =   16.0000    1.3333   -4.0000
 VDW_RADIUS   =   50.2022 A
 VDW_CNRADIUS =   21.1671 A
 Edisp (eV)   -0.13797

 E6    (eV) :    -0.0966
 E8    (eV) :    -0.0414
 % E8        : 29.98
    FORVDW:  cpu time      0.0723: real time      0.0753

 VOLUME and BASIS-vectors are now :
 -----------------------------------------------------------------------------
  energy-cutoff  :     1000.00
  volume of cell :    10648.00
      direct lattice vectors                 reciprocal lattice vectors
    22.000000000  0.000000000  0.000000000     0.045454545  0.000000000  0.000000000
     0.000000000 22.000000000  0.000000000     0.000000000  0.045454545  0.000000000
     0.000000000  0.000000000 22.000000000     0.000000000  0.000000000  0.045454545

  length of vectors
    22.000000000 22.000000000 22.000000000     0.045454545  0.045454545  0.045454545


 FORCES acting on ions:
    Electron-Ion                     Ewald-Force                    Non-Local-Force
 -----------------------------------------------------------------------------------------------
   0.161E+03 -.127E+02 0.145E+00   -.163E+03 0.137E+02 -.145E+00   0.231E+01 -.103E+01 -.335E-02
   0.788E+02 0.133E+02 0.132E+00   -.842E+02 -.708E+01 -.143E+00   0.541E+01 -.666E+01 0.160E-01
   0.439E+02 -.606E+02 0.314E-01   -.459E+02 0.661E+02 -.321E-01   0.188E+01 -.543E+01 0.173E-02
   0.449E+02 0.277E+02 0.529E+02   -.469E+02 -.305E+02 -.575E+02   0.197E+01 0.268E+01 0.447E+01
   0.450E+02 0.277E+02 -.529E+02   -.470E+02 -.305E+02 0.574E+02   0.197E+01 0.269E+01 -.447E+01
   -.108E+03 0.219E+02 0.240E+00   0.116E+03 -.214E+02 -.260E+00   -.826E+01 -.479E+00 0.238E-01
   -.197E+03 -.292E+03 0.160E+00   0.227E+03 0.336E+03 -.171E+00   -.301E+02 -.438E+02 0.780E-02
   -.699E+02 0.286E+03 -.637E+00   0.439E+02 -.326E+03 0.802E+00   0.262E+02 0.401E+02 -.172E+00
 -----------------------------------------------------------------------------------------------
   -.133E+01 0.120E+02 0.126E+00   -.426E-13 0.000E+00 0.810E-14   0.133E+01 -.120E+02 -.126E+00


 POSITION                                       TOTAL-FORCE (eV/Angst)
 -----------------------------------------------------------------------------------
      9.70683     11.13026     11.00030        -0.162336     -0.008512     -0.003549
     11.20960     11.11776     11.00128         0.054339     -0.114886      0.004247
      9.35016     12.16050     11.00002        -0.038865      0.113479      0.000952
      9.32984     10.60096     10.11785        -0.035983     -0.056074     -0.080392
      9.32921     10.60076     11.88215        -0.040226     -0.057477      0.084364
     12.67079      9.91916     11.00080        -0.005814      0.014298      0.004323
     11.93428     12.08798     11.00089         0.210113      0.395731     -0.003778
     11.69701      9.83950     11.00357         0.018773     -0.286560     -0.006167
 -----------------------------------------------------------------------------------
    total drift:                               -0.000398     -0.000373      0.000063


--------------------------------------------------------------------------------------------------------



  FREE ENERGIE OF THE ION-ELECTRON SYSTEM (eV)
  ---------------------------------------------------
  free  energy   TOTEN  =       -46.36597559 eV

  energy  without entropy=      -46.36597559  energy(sigma->0) =      -46.36597559



--------------------------------------------------------------------------------------------------------


    POTLOK:  cpu time      1.3998: real time      1.4009


--------------------------------------------------------------------------------------------------------


 stress matrix after NEB project (eV)
     -0.06503      0.01858     -0.00008
      0.01858      0.11419     -0.00005
     -0.00008     -0.00005      0.01644
  FORCES: max atom, RMS     0.448068    0.213151
  FORCE total and by dimension    0.602882    0.395731
  Stress total and by dimension    0.135014    0.114192
     LOOP+:  cpu time     89.3850: real time     89.6983
    4ORBIT:  cpu time      0.0000: real time      0.0000

 total amount of memory used by VASP MPI-rank0   154394. kBytes
=======================================================================

   base      :      30000. kBytes
   nonl-proj :       3818. kBytes
   fftplans  :      40084. kBytes
   grid      :      77629. kBytes
   one-center:          1. kBytes
   wavefun   :       2862. kBytes

  
  
 General timing and accounting informations for this job:
 ========================================================
  
                  Total CPU time used (sec):      111.844
                            User time (sec):      108.845
                          System time (sec):        2.998
                         Elapsed time (sec):      115.290
  
                   Maximum memory used (kb):      387164.
                   Average memory used (kb):          N/A
  
                          Minor page faults:       173403
                          Major page faults:         1192
                 Voluntary context switches:         3702
