 vasp.6.4.1 05Apr23 (build Jun  6 2023 14:46:38) gamma-only                      
 executed on        HPECrayEX_GCC date 2024.08.20  18:24:33
 running  256 mpi-ranks, with    1 threads/rank, on    2 nodes
 distrk:  each k-point on  256 cores,    1 groups
 distr:  one band on NCORE=  64 cores,    4 groups


--------------------------------------------------------------------------------------------------------


 INCAR:
   ALGO = Conjugate
   NPAR = 4
   ISMEAR = 0
   SIGMA = 0.01
   PREC = Accurate
   EDIFF = 1E-7
   ENCUT = 1000
   ISIF = 0
   IVDW = 2
   SYMPREC = 1E-7
   LWAVE = .FALSE.
   LCHARG = .FALSE.

 POTCAR:    PAW_PBE C_h 06Feb2004                 
 POTCAR:    PAW_PBE H_h 06Feb2004                 
 POTCAR:    PAW_PBE O_h 06Feb2004                 
 POTCAR:    PAW_PBE C_h 06Feb2004                 
   VRHFIN =C: s2p2                                                                                  
   LEXCH  = PE                                                                                      
   EATOM  =   147.1560 eV,   10.8157 Ry                                                             
                                                                                                    
   TITEL  = PAW_PBE C_h 06Feb2004                                                                   
   LULTRA =        F    use ultrasoft PP ?                                                          
   IUNSCR =        1    unscreen: 0-lin 1-nonlin 2-no                                               
   RPACOR =    0.800    partial core radius                                                         
   POMASS =   12.011; ZVAL   =    4.000    mass and valenz                                          
   RCORE  =    1.100    outmost cutoff radius                                                       
   RWIGS  =    1.630; RWIGS  =    0.863    wigner-seitz radius (au A)                               
   ENMAX  =  700.000; ENMIN  =  500.000 eV                                                          
   ICORE  =        2    local potential                                                             
   LCOR   =        T    correct aug charges                                                         
   LPAW   =        T    paw PP                                                                      
   EAUG   =  946.768                                                                                
   DEXC   =    0.000                                                                                
   RMAX   =    1.128    core radius for proj-oper                                                   
   RAUG   =    1.300    factor for augmentation sphere                                              
   RDEP   =    1.162    radius for radial grids                                                     
   RDEPT  =    1.088    core radius for aug-charge                                                  
                                                                                                    
   Atomic configuration                                                                             
    4 entries                                                                                       
     n  l   j            E        occ.                                                              
     1  0  0.50      -273.3789   2.0000                                                             
     2  0  0.50       -13.7508   2.0000                                                             
     2  1  0.50        -5.2854   2.0000                                                             
     3  2  1.50        -5.4423   0.0000                                                             
   Description                                                                                      
     l       E           TYP  RCUT    TYP  RCUT                                                     
     0    -13.7508458     23  1.100                                                                 
     0     -8.2022199     23  1.100                                                                 
     1     -5.2854383     23  1.100                                                                 
     1      1.1560700     23  1.100                                                                 
     2     -5.4423304      7  1.100                                                                 
  local pseudopotential read in
  partial core-charges read in
  partial kinetic energy density read in
  atomic valenz-charges read in
  non local Contribution for L=           0  read in
    real space projection operators read in
  non local Contribution for L=           0  read in
    real space projection operators read in
  non local Contribution for L=           1  read in
    real space projection operators read in
  non local Contribution for L=           1  read in
    real space projection operators read in
    PAW grid and wavefunctions read in

   number of l-projection  operators is LMAX  =           4
   number of lm-projection operators is LMMAX =           8

 POTCAR:    PAW_PBE H_h 06Feb2004                 
   VRHFIN =H: ultrasoft test                                                                        
   LEXCH  = PE                                                                                      
   EATOM  =    12.4884 eV,    0.9179 Ry                                                             
                                                                                                    
   TITEL  = PAW_PBE H_h 06Feb2004                                                                   
   LULTRA =        F    use ultrasoft PP ?                                                          
   IUNSCR =        0    unscreen: 0-lin 1-nonlin 2-no                                               
   RPACOR =    0.000    partial core radius                                                         
   POMASS =    1.000; ZVAL   =    1.000    mass and valenz                                          
   RCORE  =    0.800    outmost cutoff radius                                                       
   RWIGS  =    0.700; RWIGS  =    0.370    wigner-seitz radius (au A)                               
   ENMAX  =  700.000; ENMIN  =  350.000 eV                                                          
   RCLOC  =    0.701    cutoff for local pot                                                        
   LCOR   =        T    correct aug charges                                                         
   LPAW   =        T    paw PP                                                                      
   EAUG   = 1000.000                                                                                
   RMAX   =    0.819    core radius for proj-oper                                                   
   RAUG   =    1.000    factor for augmentation sphere                                              
   RDEP   =    0.817    radius for radial grids                                                     
   RDEPT  =    0.817    core radius for aug-charge                                                  
                                                                                                    
   Atomic configuration                                                                             
    2 entries                                                                                       
     n  l   j            E        occ.                                                              
     1  0  0.50        -6.4927   1.0000                                                             
     2  1  0.50        -3.4015   0.0000                                                             
   Description                                                                                      
     l       E           TYP  RCUT    TYP  RCUT                                                     
     0     -6.4927493     23  0.800                                                                 
     0      6.8029130     23  0.800                                                                 
     1     -6.8029130     23  0.800                                                                 
  local pseudopotential read in
  atomic valenz-charges read in
  non local Contribution for L=           0  read in
    real space projection operators read in
  non local Contribution for L=           0  read in
    real space projection operators read in
  non local Contribution for L=           1  read in
    real space projection operators read in
    PAW grid and wavefunctions read in

   number of l-projection  operators is LMAX  =           3
   number of lm-projection operators is LMMAX =           5

 POTCAR:    PAW_PBE O_h 06Feb2004                 
   VRHFIN =O: s2p4                                                                                  
   LEXCH  = PE                                                                                      
   EATOM  =   432.3788 eV,   31.7789 Ry                                                             
                                                                                                    
   TITEL  = PAW_PBE O_h 06Feb2004                                                                   
   LULTRA =        F    use ultrasoft PP ?                                                          
   IUNSCR =        1    unscreen: 0-lin 1-nonlin 2-no                                               
   RPACOR =    0.800    partial core radius                                                         
   POMASS =   16.000; ZVAL   =    6.000    mass and valenz                                          
   RCORE  =    1.100    outmost cutoff radius                                                       
   RWIGS  =    1.400; RWIGS  =    0.741    wigner-seitz radius (au A)                               
   ENMAX  =  700.000; ENMIN  =  500.000 eV                                                          
   ICORE  =        2    local potential                                                             
   LCOR   =        T    correct aug charges                                                         
   LPAW   =        T    paw PP                                                                      
   EAUG   =  888.804                                                                                
   DEXC   =    0.000                                                                                
   RMAX   =    1.128    core radius for proj-oper                                                   
   RAUG   =    1.300    factor for augmentation sphere                                              
   RDEP   =    1.125    radius for radial grids                                                     
   RDEPT  =    1.088    core radius for aug-charge                                                  
                                                                                                    
   Atomic configuration                                                                             
    4 entries                                                                                       
     n  l   j            E        occ.                                                              
     1  0  0.50      -514.6923   2.0000                                                             
     2  0  0.50       -23.9615   2.0000                                                             
     2  1  0.50        -9.0305   4.0000                                                             
     3  2  1.50        -9.5241   0.0000                                                             
   Description                                                                                      
     l       E           TYP  RCUT    TYP  RCUT                                                     
     0    -23.9615319     23  1.100                                                                 
     0    -25.3221145     23  1.100                                                                 
     1     -9.0304911     23  1.100                                                                 
     1     -5.4802209     23  1.100                                                                 
     2     -9.5240782      7  1.100                                                                 
  local pseudopotential read in
  partial core-charges read in
  partial kinetic energy density read in
  atomic valenz-charges read in
  non local Contribution for L=           0  read in
    real space projection operators read in
  non local Contribution for L=           0  read in
    real space projection operators read in
  non local Contribution for L=           1  read in
    real space projection operators read in
  non local Contribution for L=           1  read in
    real space projection operators read in
    PAW grid and wavefunctions read in

   number of l-projection  operators is LMAX  =           4
   number of lm-projection operators is LMMAX =           8

  PAW_PBE C_h 06Feb2004                 :
 energy of atom  1       EATOM= -147.1560
 kinetic energy error for atom=    0.0031 (will be added to EATOM!!)
  PAW_PBE H_h 06Feb2004                 :
 energy of atom  2       EATOM=  -12.4884
 kinetic energy error for atom=    0.0006 (will be added to EATOM!!)
  PAW_PBE O_h 06Feb2004                 :
 energy of atom  3       EATOM= -432.3788
 kinetic energy error for atom=    0.0171 (will be added to EATOM!!)


 POSCAR:  C  H  O
  positions in cartesian coordinates
  No initial velocities read in
 exchange correlation table for  LEXCH =        8
   RHO(1)=    0.500       N(1)  =     2000
   RHO(2)=  100.500       N(2)  =     4000

 VTST: version 4.1, (05/19/21)

 CHAIN: initializing optimizer
 
 OPT: Using VASP Dynamics algorithm
 CHAIN: Read ICHAIN            0

 POSCAR:  C  H  O
  positions in cartesian coordinates
  No initial velocities read in



--------------------------------------------------------------------------------------------------------


 ion  position               nearest neighbor table
   1  0.441  0.506  0.500-   3 1.09   5 1.10   4 1.10   2 1.50
   2  0.510  0.505  0.500-   7 1.21   8 1.37   1 1.50
   3  0.425  0.553  0.500-   1 1.09
   4  0.424  0.482  0.460-   1 1.10
   5  0.424  0.482  0.540-   1 1.10
   6  0.576  0.451  0.500-   8 0.98
   7  0.542  0.549  0.500-   2 1.21
   8  0.532  0.447  0.500-   6 0.98   2 1.37

  LATTYP: Found a simple cubic cell.
 ALAT       =    22.0000000000
  
  Lattice vectors:
  
 A1 = (  22.0000000000,   0.0000000000,   0.0000000000)
 A2 = (   0.0000000000,  22.0000000000,   0.0000000000)
 A3 = (   0.0000000000,   0.0000000000,  22.0000000000)


Analysis of symmetry for initial positions (statically):
=====================================================================
 Subroutine PRICEL returns:
 Original cell was already a primitive cell.
 

 Routine SETGRP: Setting up the symmetry group for a 
 simple cubic supercell.


 Subroutine GETGRP returns: Found  1 space group operations
 (whereof  1 operations were pure point group operations)
 out of a pool of 48 trial point group operations.


The static configuration has the point symmetry C_1 .


Analysis of symmetry for dynamics (positions and initial velocities):
=====================================================================
 Subroutine PRICEL returns:
 Original cell was already a primitive cell.
 

 Routine SETGRP: Setting up the symmetry group for a 
 simple cubic supercell.


 Subroutine GETGRP returns: Found  1 space group operations
 (whereof  1 operations were pure point group operations)
 out of a pool of 48 trial point group operations.


The dynamic configuration has the point symmetry C_1 .


 Subroutine INISYM returns: Found  1 space group operations
 (whereof  1 operations are pure point group operations),
 and found     1 'primitive' translations


----------------------------------------------------------------------------------------

                                     Primitive cell                                     

  volume of cell :   10648.0000

  direct lattice vectors                    reciprocal lattice vectors
    22.000000000  0.000000000  0.000000000     0.045454545  0.000000000  0.000000000
     0.000000000 22.000000000  0.000000000     0.000000000  0.045454545  0.000000000
     0.000000000  0.000000000 22.000000000     0.000000000  0.000000000  0.045454545

  length of vectors
    22.000000000 22.000000000 22.000000000     0.045454545  0.045454545  0.045454545

  position of ions in fractional coordinates (direct lattice)
     0.441219545  0.505920909  0.500013636
     0.509527273  0.505352727  0.500058182
     0.425007273  0.552750000  0.500000909
     0.424083636  0.481861818  0.459902273
     0.424055000  0.481852727  0.540097727
     0.575945000  0.450870909  0.500036364
     0.542467273  0.549453636  0.500040455
     0.531682273  0.447250000  0.500162273

  ion indices of the primitive-cell ions
   primitive index   ion index
                 1           1
                 2           2
                 3           3
                 4           4
                 5           5
                 6           6
                 7           7
                 8           8

----------------------------------------------------------------------------------------



 KPOINTS: auto                                    

Automatic generation of k-mesh.
 Grid dimensions read from file:
 generate k-points for:    1    1    1

 Generating k-lattice:

  Cartesian coordinates                     Fractional coordinates (reciprocal lattice)
     0.045454545  0.000000000  0.000000000     1.000000000  0.000000000  0.000000000
     0.000000000  0.045454545  0.000000000     0.000000000  1.000000000  0.000000000
     0.000000000  0.000000000  0.045454545     0.000000000  0.000000000  1.000000000

  Length of vectors
     0.045454545  0.045454545  0.045454545

  Shift w.r.t. Gamma in fractional coordinates (k-lattice)
     0.000000000  0.000000000  0.000000000

 
 Subroutine IBZKPT returns following result:
 ===========================================
 
 Found      1 irreducible k-points:
 
 Following reciprocal coordinates:
            Coordinates               Weight
  0.000000  0.000000  0.000000      1.000000
 
 Following cartesian coordinates:
            Coordinates               Weight
  0.000000  0.000000  0.000000      1.000000
 


--------------------------------------------------------------------------------------------------------




 Dimension of arrays:
   k-points           NKPTS =      1   k-points in BZ     NKDIM =      1   number of bands    NBANDS=     20
   number of dos      NEDOS =    301   number of ions     NIONS =      8
   non local maximal  LDIM  =      4   non local SUM 2l+1 LMDIM =      8
   total plane-waves  NPLWV = ******
   max r-space proj   IRMAX =      1   max aug-charges    IRDMAX=   9667
   dimension x,y,z NGX =   240 NGY =  240 NGZ =  240
   dimension x,y,z NGXF=   480 NGYF=  480 NGZF=  480
   support grid    NGXF=   480 NGYF=  480 NGZF=  480
   ions per type =               2   4   2
   NGX,Y,Z   is equivalent  to a cutoff of  18.14, 18.14, 18.14 a.u.
   NGXF,Y,Z  is equivalent  to a cutoff of  36.27, 36.27, 36.27 a.u.

 SYSTEM =  unknown system                          
 POSCAR =   C  H  O                                

 Startparameter for this run:
   NWRITE =      2    write-flag & timer
   PREC   = accura    normal or accurate (medium, high low for compatibility)
   ISTART =      0    job   : 0-new  1-cont  2-samecut
   ICHARG =      2    charge: 1-file 2-atom 10-const
   ISPIN  =      1    spin polarized calculation?
   LNONCOLLINEAR =      F non collinear calculations
   LSORBIT =      F    spin-orbit coupling
   INIWAV =      1    electr: 0-lowe 1-rand  2-diag
   LASPH  =      F    aspherical Exc in radial PAW
 Electronic Relaxation 1
   ENCUT  = 1000.0 eV  73.50 Ry    8.57 a.u.  56.73 56.73 56.73*2*pi/ulx,y,z
   ENINI  = 1000.0     initial cutoff
   ENAUG  = 1000.0 eV  augmentation charge cutoff
   NELM   =     60;   NELMIN=  2; NELMDL= -5     # of ELM steps 
   EDIFF  = 0.1E-06   stopping-criterion for ELM
   LREAL  =      F    real-space projection
   NLSPLINE    = F    spline interpolate recip. space projectors
   LCOMPAT=      F    compatible to vasp.4.4
   GGA_COMPAT  = T    GGA compatible to vasp.4.4-vasp.4.6
   LMAXPAW     = -100 max onsite density
   LMAXMIX     =    2 max onsite mixed and CHGCAR
   VOSKOWN=      0    Vosko Wilk Nusair interpolation
   ROPT   =    0.00000   0.00000   0.00000
 Ionic relaxation
   EDIFFG = 0.1E-05   stopping-criterion for IOM
   NSW    =      0    number of steps for IOM
   NBLOCK =      1;   KBLOCK =      1    inner block; outer block 
   IBRION =     -1    ionic relax: 0-MD 1-quasi-New 2-CG
   NFREE  =      0    steps in history (QN), initial steepest desc. (CG)
   ISIF   =      0    stress and relaxation
   IWAVPR =     10    prediction:  0-non 1-charg 2-wave 3-comb
   ISYM   =      2    0-nonsym 1-usesym 2-fastsym
   LCORR  =      T    Harris-Foulkes like correction to forces

   POTIM  = 0.5000    time-step for ionic-motion
   TEIN   =    0.0    initial temperature
   TEBEG  =    0.0;   TEEND  =   0.0 temperature during run
   SMASS  =  -3.00    Nose mass-parameter (am)
   estimated Nose-frequenzy (Omega)   =  0.10E-29 period in steps = 0.13E+47 mass=  -0.111E-25a.u.
   SCALEE = 1.0000    scale energy and forces
   NPACO  =    256;   APACO  = 10.0  distance and # of slots for P.C.
   PSTRESS=    0.0 pullay stress

  Mass of Ions in am
   POMASS =  12.01  1.00 16.00
  Ionic Valenz
   ZVAL   =   4.00  1.00  6.00
  Atomic Wigner-Seitz radii
   RWIGS  =  -1.00 -1.00 -1.00
  virtual crystal weights 
   VCA    =   1.00  1.00  1.00
   NELECT =      24.0000    total number of electrons
   NUPDOWN=      -1.0000    fix difference up-down

 DOS related values:
   EMIN   =  10.00;   EMAX   =-10.00  energy-range for DOS
   EFERMI =   0.00;   METHOD = LEGACY      
   ISMEAR =     0;   SIGMA  =   0.01  broadening in eV -4-tet -1-fermi 0-gaus

 Electronic relaxation 2 (details)
   IALGO  =     58    algorithm
   LDIAG  =      T    sub-space diagonalisation (order eigenvalues)
   LSUBROT=      F    optimize rotation matrix (better conditioning)
   TURBO    =      0    0=normal 1=particle mesh
   IRESTART =      0    0=no restart 2=restart with 2 vectors
   NREBOOT  =      0    no. of reboots
   NMIN     =      0    reboot dimension
   EREF     =   0.00    reference energy to select bands
   IMIX   =      4    mixing-type and parameters
     AMIX     =   0.40;   BMIX     =  1.00
     AMIX_MAG =   1.60;   BMIX_MAG =  1.00
     AMIN     =   0.10
     WC   =   100.;   INIMIX=   1;  MIXPRE=   1;  MAXMIX= -45

 Intra band minimization:
   WEIMIN = 0.0000     energy-eigenvalue tresh-hold
   EBREAK =  0.13E-08  absolut break condition
   DEPER  =   0.30     relativ break condition  

   TIME   =   0.40     timestep for ELM

  volume/ion in A,a.u.               =    1331.00      8982.03
  Fermi-wavevector in a.u.,A,eV,Ry     =   0.214646  0.405622  0.626859  0.046073
  Thomas-Fermi vector in A             =   0.987905

 Write flags
   LWAVE        =      F    write WAVECAR
   LDOWNSAMPLE  =      F    k-point downsampling of WAVECAR
   LCHARG       =      F    write CHGCAR
   LVTOT        =      F    write LOCPOT, total local potential
   LVHAR        =      F    write LOCPOT, Hartree potential only
   LELF         =      F    write electronic localiz. function (ELF)
   LORBIT       =      0    0 simple, 1 ext, 2 COOP (PROOUT), +10 PAW based schemes


 Dipole corrections
   LMONO  =      F    monopole corrections only (constant potential shift)
   LDIPOL =      F    correct potential (dipole corrections)
   IDIPOL =      0    1-x, 2-y, 3-z, 4-all directions 
   EPSILON=  1.0000000 bulk dielectric constant

 Exchange correlation treatment:
   GGA     =    --    GGA type
   LEXCH   =     8    internal setting for exchange type
   LIBXC   =     F    Libxc                    
   VOSKOWN =     0    Vosko Wilk Nusair interpolation
   LHFCALC =     F    Hartree Fock is set to
   LHFONE  =     F    Hartree Fock one center treatment
   AEXX    =    0.0000 exact exchange contribution

 Linear response parameters
   LEPSILON=     F    determine dielectric tensor
   LRPA    =     F    only Hartree local field effects (RPA)
   LNABLA  =     F    use nabla operator in PAW spheres
   LVEL    =     F    velocity operator in full k-point grid
   CSHIFT  =0.1000    complex shift for real part using Kramers Kronig
   OMEGAMAX=  -1.0    maximum frequency
   DEG_THRESHOLD= 0.2000000E-02 threshold for treating states as degnerate
   RTIME   =   -0.100 relaxation time in fs
  (WPLASMAI=    0.000 imaginary part of plasma frequency in eV, 0.658/RTIME)
   DFIELD  = 0.0000000 0.0000000 0.0000000 field for delta impulse in time

  Optional k-point grid parameters
   LKPOINTS_OPT  =     F    use optional k-point grid
   KPOINTS_OPT_MODE=     1    mode for optional k-point grid

 Orbital magnetization related:
   ORBITALMAG=     F  switch on orbital magnetization
   LCHIMAG   =     F  perturbation theory with respect to B field
   DQ        =  0.001000  dq finite difference perturbation B field
   LLRAUG    =     F  two centre corrections for induced B field
   LBONE     =     F  B-component reconstruction in AE one-centre
   LVGVCALC  =     T  calculate vGv susceptibility
   LVGVAPPL  =     F  apply vGv susceptibility instead of pGv for G=0

 Random number generation:
   RANDOM_GENERATOR = DEFAULT
   PCG_SEED         = not used


--------------------------------------------------------------------------------------------------------


 Static calculation
 charge density and potential will be updated during run
 non-spin polarized calculation
 Conjugate gradient for all bands (Freysoldt, et al. PRB 79, 241103 (2009))
 preconditioned conjugated gradient                                        
 perform sub-space diagonalisation
    before iterative eigenvector-optimisation
 modified Broyden-mixing scheme, WC =      100.0
 initial mixing is a Kerker type mixing with AMIX =  0.4000 and BMIX =      1.0000
 Hartree-type preconditioning will be used
 using additional bands            8
 reciprocal scheme for non local part
 use partial core corrections
 no Harris-corrections to forces 
 use gradient corrections 
 use of overlap-Matrix (Vanderbilt PP)
 Gauss-broadening in eV      SIGMA  =   0.01


--------------------------------------------------------------------------------------------------------


  energy-cutoff  :     1000.00
  volume of cell :    10648.00
      direct lattice vectors                 reciprocal lattice vectors
    22.000000000  0.000000000  0.000000000     0.045454545  0.000000000  0.000000000
     0.000000000 22.000000000  0.000000000     0.000000000  0.045454545  0.000000000
     0.000000000  0.000000000 22.000000000     0.000000000  0.000000000  0.045454545

  length of vectors
    22.000000000 22.000000000 22.000000000     0.045454545  0.045454545  0.045454545



 k-points in units of 2pi/SCALE and weight: auto                                    
   0.00000000  0.00000000  0.00000000       1.000

 k-points in reciprocal lattice and weights: auto                                    
   0.00000000  0.00000000  0.00000000       1.000

 position of ions in fractional coordinates (direct lattice) 
   0.44121955  0.50592091  0.50001364
   0.50952727  0.50535273  0.50005818
   0.42500727  0.55275000  0.50000091
   0.42408364  0.48186182  0.45990227
   0.42405500  0.48185273  0.54009773
   0.57594500  0.45087091  0.50003636
   0.54246727  0.54945364  0.50004045
   0.53168227  0.44725000  0.50016227

 position of ions in cartesian coordinates  (Angst):
   9.70683000 11.13026000 11.00030000
  11.20960000 11.11776000 11.00128000
   9.35016000 12.16050000 11.00002000
   9.32984000 10.60096000 10.11785000
   9.32921000 10.60076000 11.88215000
  12.67079000  9.91916000 11.00080000
  11.93428000 12.08798000 11.00089000
  11.69701000  9.83950000 11.00357000



--------------------------------------------------------------------------------------------------------


 use parallel FFT for orbitals z direction half grid
 k-point   1 :   0.0000 0.0000 0.0000  plane waves:  381993

 maximum and minimum number of plane-waves per node :      5979     5959

 maximum number of plane-waves:    381993
 maximum index in each direction: 
   IXMAX=   56   IYMAX=   56   IZMAX=   56
   IXMIN=  -56   IYMIN=  -56   IZMIN=    0


 parallel 3D FFT for wavefunctions:
    minimum data exchange during FFTs selected (reduces bandwidth)
 parallel 3D FFT for charge:
    minimum data exchange during FFTs selected (reduces bandwidth)


 total amount of memory used by VASP MPI-rank0    92255. kBytes
=======================================================================

   base      :      30000. kBytes
   nonl-proj :       1908. kBytes
   fftplans  :      20101. kBytes
   grid      :      38814. kBytes
   one-center:          1. kBytes
   wavefun   :       1431. kBytes

     INWAV:  cpu time      0.0000: real time      0.0000
 Broyden mixing: mesh for mixing (old mesh)
   NGX =113   NGY =113   NGZ =113
  (NGX  =480   NGY  =480   NGZ  =480)
  gives a total of ****** points

 initial charge density was supplied:
 charge density of overlapping atoms calculated
 number of electron      24.0000000 magnetization 
 keeping initial charge density in first step


--------------------------------------------------------------------------------------------------------


 Maximum index for augmentation-charges          527 (set IRDMAX)


--------------------------------------------------------------------------------------------------------


 First call to EWALD:  gamma=   0.081
 Maximum number of real-space cells 3x 3x 3
 Maximum number of reciprocal cells 3x 3x 3

    FEWALD:  cpu time      0.0020: real time      0.0020


--------------------------------------- Ionic step        1  -------------------------------------------




--------------------------------------- Iteration      1(   1)  ---------------------------------------


    POTLOK:  cpu time      0.5920: real time      0.5928
    SETDIJ:  cpu time      0.0095: real time      0.0102
    TRIAL :  cpu time      0.4913: real time      0.4940
    CORREC:  cpu time      0.0015: real time      0.0015
    --------------------------------------------
      LOOP:  cpu time      1.1025: real time      1.1067

 eigenvalue-minimisations  :    56
 total energy-change (2. order) : 0.2205234E+03  (-0.5529261E+03)
 number of electron      24.0000000 magnetization 
 augmentation part       24.0000000 magnetization 

 Free energy of the ion-electron system (eV)
  ---------------------------------------------------
  alpha Z        PSCENC =         0.15373622
  Ewald energy   TEWEN  =      1306.86434740
  -Hartree energ DENC   =     -2223.11047284
  -exchange      EXHF   =         0.00000000
  -V(xc)+E(xc)   XCENC  =        75.40652717
  PAW double counting   =       926.11038280     -918.04053411
  entropy T*S    EENTRO =        -0.00000000
  eigenvalues    EBANDS =      -155.84100220
  atomic energy  EATOM  =      1208.98040739
  ---------------------------------------------------
  free energy    TOTEN  =       220.52339182 eV

  energy without entropy =      220.52339182  energy(sigma->0) =      220.52339182


--------------------------------------------------------------------------------------------------------




--------------------------------------- Iteration      1(   2)  ---------------------------------------


    TRIAL :  cpu time      0.4884: real time      0.4884
    CORREC:  cpu time      0.0003: real time      0.0003
    --------------------------------------------
      LOOP:  cpu time      0.5017: real time      0.5171

 eigenvalue-minimisations  :    60
 total energy-change (2. order) :-0.1010659E+03  (-0.9957746E+02)
 number of electron      24.0000000 magnetization 
 augmentation part       24.0000000 magnetization 

 Free energy of the ion-electron system (eV)
  ---------------------------------------------------
  alpha Z        PSCENC =         0.15373622
  Ewald energy   TEWEN  =      1306.86434740
  -Hartree energ DENC   =     -2223.11047284
  -exchange      EXHF   =         0.00000000
  -V(xc)+E(xc)   XCENC  =        75.40652717
  PAW double counting   =       926.11038280     -918.04053411
  entropy T*S    EENTRO =        -0.00000260
  eigenvalues    EBANDS =      -256.90689506
  atomic energy  EATOM  =      1208.98040739
  ---------------------------------------------------
  free energy    TOTEN  =       119.45749636 eV

  energy without entropy =      119.45749896  energy(sigma->0) =      119.45749766


--------------------------------------------------------------------------------------------------------




--------------------------------------- Iteration      1(   3)  ---------------------------------------


    TRIAL :  cpu time      0.5608: real time      0.5612
    CORREC:  cpu time      0.0001: real time      0.0001
    --------------------------------------------
      LOOP:  cpu time      0.5765: real time      0.5909

 eigenvalue-minimisations  :    72
 total energy-change (2. order) :-0.1203676E+03  (-0.1179930E+03)
 number of electron      24.0000000 magnetization 
 augmentation part       24.0000000 magnetization 

 Free energy of the ion-electron system (eV)
  ---------------------------------------------------
  alpha Z        PSCENC =         0.15373622
  Ewald energy   TEWEN  =      1306.86434740
  -Hartree energ DENC   =     -2223.11047284
  -exchange      EXHF   =         0.00000000
  -V(xc)+E(xc)   XCENC  =        75.40652717
  PAW double counting   =       926.11038280     -918.04053411
  entropy T*S    EENTRO =        -0.00000000
  eigenvalues    EBANDS =      -377.27452361
  atomic energy  EATOM  =      1208.98040739
  ---------------------------------------------------
  free energy    TOTEN  =        -0.91012959 eV

  energy without entropy =       -0.91012959  energy(sigma->0) =       -0.91012959


--------------------------------------------------------------------------------------------------------




--------------------------------------- Iteration      1(   4)  ---------------------------------------


    TRIAL :  cpu time      0.4640: real time      0.4640
    CORREC:  cpu time      0.0001: real time      0.0001
    --------------------------------------------
      LOOP:  cpu time      0.4924: real time      0.4925

 eigenvalue-minimisations  :    56
 total energy-change (2. order) :-0.4771635E+02  (-0.4764908E+02)
 number of electron      24.0000000 magnetization 
 augmentation part       24.0000000 magnetization 

 Free energy of the ion-electron system (eV)
  ---------------------------------------------------
  alpha Z        PSCENC =         0.15373622
  Ewald energy   TEWEN  =      1306.86434740
  -Hartree energ DENC   =     -2223.11047284
  -exchange      EXHF   =         0.00000000
  -V(xc)+E(xc)   XCENC  =        75.40652717
  PAW double counting   =       926.11038280     -918.04053411
  entropy T*S    EENTRO =        -0.00000000
  eigenvalues    EBANDS =      -424.99087219
  atomic energy  EATOM  =      1208.98040739
  ---------------------------------------------------
  free energy    TOTEN  =       -48.62647817 eV

  energy without entropy =      -48.62647817  energy(sigma->0) =      -48.62647817


--------------------------------------------------------------------------------------------------------




--------------------------------------- Iteration      1(   5)  ---------------------------------------


    TRIAL :  cpu time      0.5592: real time      0.5592
    CORREC:  cpu time      0.0001: real time      0.0001
    CHARGE:  cpu time      0.0971: real time      0.0977
    --------------------------------------------
      LOOP:  cpu time      0.6685: real time      0.6859

 eigenvalue-minimisations  :    72
 total energy-change (2. order) :-0.3046716E+01  (-0.3045270E+01)
 number of electron      24.0000000 magnetization 
 augmentation part        0.1642233 magnetization 

 Free energy of the ion-electron system (eV)
  ---------------------------------------------------
  alpha Z        PSCENC =         0.15373622
  Ewald energy   TEWEN  =      1306.86434740
  -Hartree energ DENC   =     -2223.11047284
  -exchange      EXHF   =         0.00000000
  -V(xc)+E(xc)   XCENC  =        75.40652717
  PAW double counting   =       926.11038280     -918.04053411
  entropy T*S    EENTRO =        -0.00000000
  eigenvalues    EBANDS =      -428.03758835
  atomic energy  EATOM  =      1208.98040739
  ---------------------------------------------------
  free energy    TOTEN  =       -51.67319433 eV

  energy without entropy =      -51.67319433  energy(sigma->0) =      -51.67319433


--------------------------------------------------------------------------------------------------------




--------------------------------------- Iteration      1(   6)  ---------------------------------------


    POTLOK:  cpu time      0.6032: real time      0.6034
    SETDIJ:  cpu time      0.0024: real time      0.0024
    TRIAL :  cpu time      0.2655: real time      0.2671
    CORREC:  cpu time      0.7593: real time      0.7607
    CHARGE:  cpu time      0.0849: real time      0.0849
    --------------------------------------------
      LOOP:  cpu time      1.7434: real time      1.7469

 eigenvalue-minimisations  :     0
 total energy-change (2. order) : 0.1031263E+02  (-0.4551801E+01)
 number of electron      24.0000000 magnetization 
 augmentation part        0.1218089 magnetization 

 Free energy of the ion-electron system (eV)
  ---------------------------------------------------
  alpha Z        PSCENC =         0.15373622
  Ewald energy   TEWEN  =      1306.86434740
  -Hartree energ DENC   =     -2411.69919633
  -exchange      EXHF   =         0.00000000
  -V(xc)+E(xc)   XCENC  =        84.63669019
  PAW double counting   =      9518.73716308    -9512.26071557
  entropy T*S    EENTRO =        -0.00000000
  eigenvalues    EBANDS =      -236.77300007
  atomic energy  EATOM  =      1208.98040739
  ---------------------------------------------------
  free energy    TOTEN  =       -41.36056769 eV

  energy without entropy =      -41.36056769  energy(sigma->0) =      -41.36056769


--------------------------------------------------------------------------------------------------------




--------------------------------------- Iteration      1(   7)  ---------------------------------------


    POTLOK:  cpu time      0.6095: real time      0.6099
    SETDIJ:  cpu time      0.0028: real time      0.0028
    TRIAL :  cpu time      0.2523: real time      0.2523
    CORREC:  cpu time      0.7476: real time      0.7479
    CHARGE:  cpu time      0.0854: real time      0.0854
    --------------------------------------------
      LOOP:  cpu time      1.7253: real time      1.7282

 eigenvalue-minimisations  :     0
 total energy-change (2. order) :-0.4611130E+01  (-0.5970690E+00)
 number of electron      24.0000000 magnetization 
 augmentation part        0.0974692 magnetization 

 Free energy of the ion-electron system (eV)
  ---------------------------------------------------
  alpha Z        PSCENC =         0.15373622
  Ewald energy   TEWEN  =      1306.86434740
  -Hartree energ DENC   =     -2316.40748448
  -exchange      EXHF   =         0.00000000
  -V(xc)+E(xc)   XCENC  =        80.10188673
  PAW double counting   =     12050.89633650   -12043.62333433
  entropy T*S    EENTRO =        -0.00000000
  eigenvalues    EBANDS =      -332.93759345
  atomic energy  EATOM  =      1208.98040739
  ---------------------------------------------------
  free energy    TOTEN  =       -45.97169803 eV

  energy without entropy =      -45.97169803  energy(sigma->0) =      -45.97169803


--------------------------------------------------------------------------------------------------------




--------------------------------------- Iteration      1(   8)  ---------------------------------------


    POTLOK:  cpu time      0.6074: real time      0.6074
    SETDIJ:  cpu time      0.0030: real time      0.0030
    TRIAL :  cpu time      0.2513: real time      0.2520
    CORREC:  cpu time      0.7475: real time      0.7476
    CHARGE:  cpu time      0.0853: real time      0.0853
    --------------------------------------------
      LOOP:  cpu time      1.7075: real time      1.7261

 eigenvalue-minimisations  :     0
 total energy-change (2. order) :-0.5990805E+00  (-0.2193577E+00)
 number of electron      24.0000000 magnetization 
 augmentation part        0.0928139 magnetization 

 Free energy of the ion-electron system (eV)
  ---------------------------------------------------
  alpha Z        PSCENC =         0.15373622
  Ewald energy   TEWEN  =      1306.86434740
  -Hartree energ DENC   =     -2320.94335121
  -exchange      EXHF   =         0.00000000
  -V(xc)+E(xc)   XCENC  =        80.19481709
  PAW double counting   =     12038.66847919   -12031.28774015
  entropy T*S    EENTRO =        -0.00000000
  eigenvalues    EBANDS =      -329.20147441
  atomic energy  EATOM  =      1208.98040739
  ---------------------------------------------------
  free energy    TOTEN  =       -46.57077848 eV

  energy without entropy =      -46.57077848  energy(sigma->0) =      -46.57077848


--------------------------------------------------------------------------------------------------------




--------------------------------------- Iteration      1(   9)  ---------------------------------------


    POTLOK:  cpu time      0.6087: real time      0.6091
    SETDIJ:  cpu time      0.0026: real time      0.0026
    TRIAL :  cpu time      0.2517: real time      0.2517
    CORREC:  cpu time      0.7485: real time      0.7490
    CHARGE:  cpu time      0.0854: real time      0.0854
    --------------------------------------------
      LOOP:  cpu time      1.7087: real time      1.7271

 eigenvalue-minimisations  :     0
 total energy-change (2. order) :-0.2195201E+00  (-0.8985459E-01)
 number of electron      24.0000000 magnetization 
 augmentation part        0.0917683 magnetization 

 Free energy of the ion-electron system (eV)
  ---------------------------------------------------
  alpha Z        PSCENC =         0.15373622
  Ewald energy   TEWEN  =      1306.86434740
  -Hartree energ DENC   =     -2322.62742472
  -exchange      EXHF   =         0.00000000
  -V(xc)+E(xc)   XCENC  =        80.21509693
  PAW double counting   =     12276.83828202   -12269.42088055
  entropy T*S    EENTRO =        -0.00000000
  eigenvalues    EBANDS =      -327.79386324
  atomic energy  EATOM  =      1208.98040739
  ---------------------------------------------------
  free energy    TOTEN  =       -46.79029855 eV

  energy without entropy =      -46.79029855  energy(sigma->0) =      -46.79029855


--------------------------------------------------------------------------------------------------------




--------------------------------------- Iteration      1(  10)  ---------------------------------------


    POTLOK:  cpu time      0.6072: real time      0.6077
    SETDIJ:  cpu time      0.0025: real time      0.0025
    TRIAL :  cpu time      0.2505: real time      0.2505
    CORREC:  cpu time      0.7465: real time      0.7469
    CHARGE:  cpu time      0.0854: real time      0.0854
    --------------------------------------------
      LOOP:  cpu time      1.7229: real time      1.7243

 eigenvalue-minimisations  :     0
 total energy-change (2. order) :-0.8919610E-01  (-0.3379741E-01)
 number of electron      24.0000000 magnetization 
 augmentation part        0.0930565 magnetization 

 Free energy of the ion-electron system (eV)
  ---------------------------------------------------
  alpha Z        PSCENC =         0.15373622
  Ewald energy   TEWEN  =      1306.86434740
  -Hartree energ DENC   =     -2319.87091792
  -exchange      EXHF   =         0.00000000
  -V(xc)+E(xc)   XCENC  =        80.13247141
  PAW double counting   =     12167.68193778   -12160.25101981
  entropy T*S    EENTRO =        -0.00000000
  eigenvalues    EBANDS =      -330.57045711
  atomic energy  EATOM  =      1208.98040739
  ---------------------------------------------------
  free energy    TOTEN  =       -46.87949464 eV

  energy without entropy =      -46.87949464  energy(sigma->0) =      -46.87949464


--------------------------------------------------------------------------------------------------------




--------------------------------------- Iteration      1(  11)  ---------------------------------------


    POTLOK:  cpu time      0.6079: real time      0.6080
    SETDIJ:  cpu time      0.0025: real time      0.0025
    TRIAL :  cpu time      0.2513: real time      0.2516
    CORREC:  cpu time      0.7459: real time      0.7460
    CHARGE:  cpu time      0.0847: real time      0.0852
    --------------------------------------------
      LOOP:  cpu time      1.7040: real time      1.7221

 eigenvalue-minimisations  :     0
 total energy-change (2. order) :-0.3359139E-01  (-0.1097386E-01)
 number of electron      24.0000000 magnetization 
 augmentation part        0.0937966 magnetization 

 Free energy of the ion-electron system (eV)
  ---------------------------------------------------
  alpha Z        PSCENC =         0.15373622
  Ewald energy   TEWEN  =      1306.86434740
  -Hartree energ DENC   =     -2318.99042588
  -exchange      EXHF   =         0.00000000
  -V(xc)+E(xc)   XCENC  =        80.12905311
  PAW double counting   =     11967.01987606   -11959.60521854
  entropy T*S    EENTRO =        -0.00000000
  eigenvalues    EBANDS =      -331.46486179
  atomic energy  EATOM  =      1208.98040739
  ---------------------------------------------------
  free energy    TOTEN  =       -46.91308604 eV

  energy without entropy =      -46.91308604  energy(sigma->0) =      -46.91308604


--------------------------------------------------------------------------------------------------------




--------------------------------------- Iteration      1(  12)  ---------------------------------------


    POTLOK:  cpu time      0.6038: real time      0.6039
    SETDIJ:  cpu time      0.0025: real time      0.0025
    TRIAL :  cpu time      0.2515: real time      0.2515
    CORREC:  cpu time      0.7334: real time      0.7338
    CHARGE:  cpu time      0.0856: real time      0.0856
    --------------------------------------------
      LOOP:  cpu time      1.6894: real time      1.7075

 eigenvalue-minimisations  :     0
 total energy-change (2. order) :-0.1093810E-01  (-0.3140141E-02)
 number of electron      24.0000000 magnetization 
 augmentation part        0.0936567 magnetization 

 Free energy of the ion-electron system (eV)
  ---------------------------------------------------
  alpha Z        PSCENC =         0.15373622
  Ewald energy   TEWEN  =      1306.86434740
  -Hartree energ DENC   =     -2318.37736658
  -exchange      EXHF   =         0.00000000
  -V(xc)+E(xc)   XCENC  =        80.09818613
  PAW double counting   =     11941.87095001   -11934.46084076
  entropy T*S    EENTRO =        -0.00000000
  eigenvalues    EBANDS =      -332.05344394
  atomic energy  EATOM  =      1208.98040739
  ---------------------------------------------------
  free energy    TOTEN  =       -46.92402414 eV

  energy without entropy =      -46.92402414  energy(sigma->0) =      -46.92402414


--------------------------------------------------------------------------------------------------------




--------------------------------------- Iteration      1(  13)  ---------------------------------------


    POTLOK:  cpu time      0.5973: real time      0.5975
    SETDIJ:  cpu time      0.0024: real time      0.0024
    TRIAL :  cpu time      0.2515: real time      0.2515
    CORREC:  cpu time      0.7261: real time      0.7265
    CHARGE:  cpu time      0.0861: real time      0.0861
    --------------------------------------------
      LOOP:  cpu time      1.6751: real time      1.6922

 eigenvalue-minimisations  :     0
 total energy-change (2. order) :-0.3137629E-02  (-0.9915917E-03)
 number of electron      24.0000000 magnetization 
 augmentation part        0.0937164 magnetization 

 Free energy of the ion-electron system (eV)
  ---------------------------------------------------
  alpha Z        PSCENC =         0.15373622
  Ewald energy   TEWEN  =      1306.86434740
  -Hartree energ DENC   =     -2318.20529470
  -exchange      EXHF   =         0.00000000
  -V(xc)+E(xc)   XCENC  =        80.08534058
  PAW double counting   =     11972.05980086   -11964.64817715
  entropy T*S    EENTRO =        -0.00000000
  eigenvalues    EBANDS =      -332.21732235
  atomic energy  EATOM  =      1208.98040739
  ---------------------------------------------------
  free energy    TOTEN  =       -46.92716177 eV

  energy without entropy =      -46.92716177  energy(sigma->0) =      -46.92716177


--------------------------------------------------------------------------------------------------------




--------------------------------------- Iteration      1(  14)  ---------------------------------------


    POTLOK:  cpu time      0.5889: real time      0.5893
    SETDIJ:  cpu time      0.0027: real time      0.0027
    TRIAL :  cpu time      0.2514: real time      0.2514
    CORREC:  cpu time      0.7207: real time      0.7211
    CHARGE:  cpu time      0.0852: real time      0.0852
    --------------------------------------------
      LOOP:  cpu time      1.6630: real time      1.6779

 eigenvalue-minimisations  :     0
 total energy-change (2. order) :-0.9917847E-03  (-0.3252984E-03)
 number of electron      24.0000000 magnetization 
 augmentation part        0.0937857 magnetization 

 Free energy of the ion-electron system (eV)
  ---------------------------------------------------
  alpha Z        PSCENC =         0.15373622
  Ewald energy   TEWEN  =      1306.86434740
  -Hartree energ DENC   =     -2318.25550669
  -exchange      EXHF   =         0.00000000
  -V(xc)+E(xc)   XCENC  =        80.08709860
  PAW double counting   =     11987.33262582   -11979.92156334
  entropy T*S    EENTRO =        -0.00000000
  eigenvalues    EBANDS =      -332.16929895
  atomic energy  EATOM  =      1208.98040739
  ---------------------------------------------------
  free energy    TOTEN  =       -46.92815355 eV

  energy without entropy =      -46.92815355  energy(sigma->0) =      -46.92815355


--------------------------------------------------------------------------------------------------------




--------------------------------------- Iteration      1(  15)  ---------------------------------------


    POTLOK:  cpu time      0.5830: real time      0.5831
    SETDIJ:  cpu time      0.0024: real time      0.0024
    TRIAL :  cpu time      0.2518: real time      0.2518
    CORREC:  cpu time      0.7191: real time      0.7197
    CHARGE:  cpu time      0.0847: real time      0.0847
    --------------------------------------------
      LOOP:  cpu time      1.6699: real time      1.6708

 eigenvalue-minimisations  :     0
 total energy-change (2. order) :-0.3258914E-03  (-0.1162207E-03)
 number of electron      24.0000000 magnetization 
 augmentation part        0.0938947 magnetization 

 Free energy of the ion-electron system (eV)
  ---------------------------------------------------
  alpha Z        PSCENC =         0.15373622
  Ewald energy   TEWEN  =      1306.86434740
  -Hartree energ DENC   =     -2318.20327175
  -exchange      EXHF   =         0.00000000
  -V(xc)+E(xc)   XCENC  =        80.08316682
  PAW double counting   =     11983.76338236   -11976.35204083
  entropy T*S    EENTRO =        -0.00000000
  eigenvalues    EBANDS =      -332.21820705
  atomic energy  EATOM  =      1208.98040739
  ---------------------------------------------------
  free energy    TOTEN  =       -46.92847944 eV

  energy without entropy =      -46.92847944  energy(sigma->0) =      -46.92847944


--------------------------------------------------------------------------------------------------------




--------------------------------------- Iteration      1(  16)  ---------------------------------------


    POTLOK:  cpu time      0.5803: real time      0.5809
    SETDIJ:  cpu time      0.0026: real time      0.0026
    TRIAL :  cpu time      0.2516: real time      0.2517
    CORREC:  cpu time      0.7163: real time      0.7168
    CHARGE:  cpu time      0.0850: real time      0.0850
    --------------------------------------------
      LOOP:  cpu time      1.6489: real time      1.6658

 eigenvalue-minimisations  :     0
 total energy-change (2. order) :-0.1166553E-03  (-0.4289217E-04)
 number of electron      24.0000000 magnetization 
 augmentation part        0.0939619 magnetization 

 Free energy of the ion-electron system (eV)
  ---------------------------------------------------
  alpha Z        PSCENC =         0.15373622
  Ewald energy   TEWEN  =      1306.86434740
  -Hartree energ DENC   =     -2318.27579916
  -exchange      EXHF   =         0.00000000
  -V(xc)+E(xc)   XCENC  =        80.08522054
  PAW double counting   =     11969.13238712   -11961.72165788
  entropy T*S    EENTRO =        -0.00000000
  eigenvalues    EBANDS =      -332.14723771
  atomic energy  EATOM  =      1208.98040739
  ---------------------------------------------------
  free energy    TOTEN  =       -46.92859610 eV

  energy without entropy =      -46.92859610  energy(sigma->0) =      -46.92859610


--------------------------------------------------------------------------------------------------------




--------------------------------------- Iteration      1(  17)  ---------------------------------------


    POTLOK:  cpu time      0.5794: real time      0.5799
    SETDIJ:  cpu time      0.0028: real time      0.0028
    TRIAL :  cpu time      0.2525: real time      0.2525
    CORREC:  cpu time      0.7160: real time      0.7165
    CHARGE:  cpu time      0.0853: real time      0.0853
    --------------------------------------------
      LOOP:  cpu time      1.6479: real time      1.6670

 eigenvalue-minimisations  :     0
 total energy-change (2. order) :-0.4320838E-04  (-0.1642137E-04)
 number of electron      24.0000000 magnetization 
 augmentation part        0.0939857 magnetization 

 Free energy of the ion-electron system (eV)
  ---------------------------------------------------
  alpha Z        PSCENC =         0.15373622
  Ewald energy   TEWEN  =      1306.86434740
  -Hartree energ DENC   =     -2318.28120936
  -exchange      EXHF   =         0.00000000
  -V(xc)+E(xc)   XCENC  =        80.08518678
  PAW double counting   =     11958.15571399   -11950.74522206
  entropy T*S    EENTRO =        -0.00000000
  eigenvalues    EBANDS =      -332.14159966
  atomic energy  EATOM  =      1208.98040739
  ---------------------------------------------------
  free energy    TOTEN  =       -46.92863930 eV

  energy without entropy =      -46.92863930  energy(sigma->0) =      -46.92863930


--------------------------------------------------------------------------------------------------------




--------------------------------------- Iteration      1(  18)  ---------------------------------------


    POTLOK:  cpu time      0.5754: real time      0.5754
    SETDIJ:  cpu time      0.0026: real time      0.0026
    TRIAL :  cpu time      0.2509: real time      0.2509
    CORREC:  cpu time      0.7153: real time      0.7161
    CHARGE:  cpu time      0.0852: real time      0.0852
    --------------------------------------------
      LOOP:  cpu time      1.6585: real time      1.6596

 eigenvalue-minimisations  :     0
 total energy-change (2. order) :-0.1651834E-04  (-0.6162785E-05)
 number of electron      24.0000000 magnetization 
 augmentation part        0.0939725 magnetization 

 Free energy of the ion-electron system (eV)
  ---------------------------------------------------
  alpha Z        PSCENC =         0.15373622
  Ewald energy   TEWEN  =      1306.86434740
  -Hartree energ DENC   =     -2318.28993280
  -exchange      EXHF   =         0.00000000
  -V(xc)+E(xc)   XCENC  =        80.08567429
  PAW double counting   =     11955.62173958   -11948.21129547
  entropy T*S    EENTRO =        -0.00000000
  eigenvalues    EBANDS =      -332.13333243
  atomic energy  EATOM  =      1208.98040739
  ---------------------------------------------------
  free energy    TOTEN  =       -46.92865582 eV

  energy without entropy =      -46.92865582  energy(sigma->0) =      -46.92865582


--------------------------------------------------------------------------------------------------------




--------------------------------------- Iteration      1(  19)  ---------------------------------------


    POTLOK:  cpu time      0.5769: real time      0.5775
    SETDIJ:  cpu time      0.0027: real time      0.0027
    TRIAL :  cpu time      0.2513: real time      0.2513
    CORREC:  cpu time      0.7163: real time      0.7168
    CHARGE:  cpu time      0.0853: real time      0.0853
    --------------------------------------------
      LOOP:  cpu time      1.6468: real time      1.6628

 eigenvalue-minimisations  :     0
 total energy-change (2. order) :-0.6102495E-05  (-0.2233469E-05)
 number of electron      24.0000000 magnetization 
 augmentation part        0.0939523 magnetization 

 Free energy of the ion-electron system (eV)
  ---------------------------------------------------
  alpha Z        PSCENC =         0.15373622
  Ewald energy   TEWEN  =      1306.86434740
  -Hartree energ DENC   =     -2318.30314968
  -exchange      EXHF   =         0.00000000
  -V(xc)+E(xc)   XCENC  =        80.08631058
  PAW double counting   =     11958.18817806   -11950.77763781
  entropy T*S    EENTRO =        -0.00000000
  eigenvalues    EBANDS =      -332.12085407
  atomic energy  EATOM  =      1208.98040739
  ---------------------------------------------------
  free energy    TOTEN  =       -46.92866193 eV

  energy without entropy =      -46.92866193  energy(sigma->0) =      -46.92866193


--------------------------------------------------------------------------------------------------------




--------------------------------------- Iteration      1(  20)  ---------------------------------------


    POTLOK:  cpu time      0.5758: real time      0.5762
    SETDIJ:  cpu time      0.0023: real time      0.0023
    TRIAL :  cpu time      0.2511: real time      0.2511
    CORREC:  cpu time      0.7145: real time      0.7148
    CHARGE:  cpu time      0.0860: real time      0.0860
    --------------------------------------------
      LOOP:  cpu time      1.6427: real time      1.6593

 eigenvalue-minimisations  :     0
 total energy-change (2. order) :-0.2173971E-05  (-0.8715316E-06)
 number of electron      24.0000000 magnetization 
 augmentation part        0.0939473 magnetization 

 Free energy of the ion-electron system (eV)
  ---------------------------------------------------
  alpha Z        PSCENC =         0.15373622
  Ewald energy   TEWEN  =      1306.86434740
  -Hartree energ DENC   =     -2318.29799187
  -exchange      EXHF   =         0.00000000
  -V(xc)+E(xc)   XCENC  =        80.08614001
  PAW double counting   =     11960.90935597   -11953.49868304
  entropy T*S    EENTRO =        -0.00000000
  eigenvalues    EBANDS =      -332.12597617
  atomic energy  EATOM  =      1208.98040739
  ---------------------------------------------------
  free energy    TOTEN  =       -46.92866410 eV

  energy without entropy =      -46.92866410  energy(sigma->0) =      -46.92866410


--------------------------------------------------------------------------------------------------------




--------------------------------------- Iteration      1(  21)  ---------------------------------------


    POTLOK:  cpu time      0.5748: real time      0.5749
    SETDIJ:  cpu time      0.0025: real time      0.0025
    TRIAL :  cpu time      0.2513: real time      0.2514
    CORREC:  cpu time      0.7145: real time      0.7149
    CHARGE:  cpu time      0.0856: real time      0.0856
    --------------------------------------------
      LOOP:  cpu time      1.6567: real time      1.6575

 eigenvalue-minimisations  :     0
 total energy-change (2. order) :-0.8212482E-06  (-0.3300582E-06)
 number of electron      24.0000000 magnetization 
 augmentation part        0.0939398 magnetization 

 Free energy of the ion-electron system (eV)
  ---------------------------------------------------
  alpha Z        PSCENC =         0.15373622
  Ewald energy   TEWEN  =      1306.86434740
  -Hartree energ DENC   =     -2318.30396878
  -exchange      EXHF   =         0.00000000
  -V(xc)+E(xc)   XCENC  =        80.08644958
  PAW double counting   =     11962.01808129   -11954.60743825
  entropy T*S    EENTRO =        -0.00000000
  eigenvalues    EBANDS =      -332.12027976
  atomic energy  EATOM  =      1208.98040739
  ---------------------------------------------------
  free energy    TOTEN  =       -46.92866492 eV

  energy without entropy =      -46.92866492  energy(sigma->0) =      -46.92866492


--------------------------------------------------------------------------------------------------------




--------------------------------------- Iteration      1(  22)  ---------------------------------------


    POTLOK:  cpu time      0.5748: real time      0.5750
    SETDIJ:  cpu time      0.0029: real time      0.0029
    TRIAL :  cpu time      0.2559: real time      0.2559
    CORREC:  cpu time      0.7144: real time      0.7152
    CHARGE:  cpu time      0.0849: real time      0.0849
    --------------------------------------------
      LOOP:  cpu time      1.6453: real time      1.6619

 eigenvalue-minimisations  :     0
 total energy-change (2. order) :-0.3180085E-06  (-0.1473899E-06)
 number of electron      24.0000000 magnetization 
 augmentation part        0.0939411 magnetization 

 Free energy of the ion-electron system (eV)
  ---------------------------------------------------
  alpha Z        PSCENC =         0.15373622
  Ewald energy   TEWEN  =      1306.86434740
  -Hartree energ DENC   =     -2318.29834396
  -exchange      EXHF   =         0.00000000
  -V(xc)+E(xc)   XCENC  =        80.08617392
  PAW double counting   =     11962.10121747   -11954.69053185
  entropy T*S    EENTRO =        -0.00000000
  eigenvalues    EBANDS =      -332.12567182
  atomic energy  EATOM  =      1208.98040739
  ---------------------------------------------------
  free energy    TOTEN  =       -46.92866524 eV

  energy without entropy =      -46.92866524  energy(sigma->0) =      -46.92866524


--------------------------------------------------------------------------------------------------------




--------------------------------------- Iteration      1(  23)  ---------------------------------------


    POTLOK:  cpu time      0.5749: real time      0.5751
    SETDIJ:  cpu time      0.0025: real time      0.0025
    TRIAL :  cpu time      0.2509: real time      0.2510
    CORREC:  cpu time      0.7146: real time      0.7147
    CHARGE:  cpu time      0.0851: real time      0.0852
    --------------------------------------------
      LOOP:  cpu time      1.6414: real time      1.6583

 eigenvalue-minimisations  :     0
 total energy-change (2. order) :-0.1408589E-06  (-0.5429382E-07)
 number of electron      24.0000000 magnetization 
 augmentation part        0.0939397 magnetization 

 Free energy of the ion-electron system (eV)
  ---------------------------------------------------
  alpha Z        PSCENC =         0.15373622
  Ewald energy   TEWEN  =      1306.86434740
  -Hartree energ DENC   =     -2318.30096197
  -exchange      EXHF   =         0.00000000
  -V(xc)+E(xc)   XCENC  =        80.08628805
  PAW double counting   =     11961.71801345   -11954.30736794
  entropy T*S    EENTRO =        -0.00000000
  eigenvalues    EBANDS =      -332.12312797
  atomic energy  EATOM  =      1208.98040739
  ---------------------------------------------------
  free energy    TOTEN  =       -46.92866538 eV

  energy without entropy =      -46.92866538  energy(sigma->0) =      -46.92866538


--------------------------------------------------------------------------------------------------------




--------------------------------------- Iteration      1(  24)  ---------------------------------------


    POTLOK:  cpu time      0.5749: real time      0.5750
    SETDIJ:  cpu time      0.0025: real time      0.0025
    TRIAL :  cpu time      0.2511: real time      0.2511
    CORREC:  cpu time      0.7134: real time      0.7140
    EDDIAG:  cpu time      0.1103: real time      0.1114
    CHARGE:  cpu time      0.0846: real time      0.0846
    --------------------------------------------
      LOOP:  cpu time      1.7530: real time      1.7672

 eigenvalue-minimisations  :     0
 total energy-change (2. order) :-0.5271613E-07  (-0.1740583E-07)
 number of electron      24.0000000 magnetization 
 augmentation part        0.0939401 magnetization 

 Free energy of the ion-electron system (eV)
  ---------------------------------------------------
  alpha Z        PSCENC =         0.15373622
  Ewald energy   TEWEN  =      1306.86434740
  -Hartree energ DENC   =     -2318.29916007
  -exchange      EXHF   =         0.00000000
  -V(xc)+E(xc)   XCENC  =        80.08618955
  PAW double counting   =     11961.45781987   -11954.04716370
  entropy T*S    EENTRO =        -0.00000000
  eigenvalues    EBANDS =      -332.12484209
  atomic energy  EATOM  =      1208.98040739
  ---------------------------------------------------
  free energy    TOTEN  =       -46.92866543 eV

  energy without entropy =      -46.92866543  energy(sigma->0) =      -46.92866543


--------------------------------------------------------------------------------------------------------


  average scaling for gradient   1.0376


 average (electrostatic) potential at core
  the test charge radii are     0.5770  0.4325  0.5955
  (the norm of the test charge is              1.0000)
       1 -86.3926       2 -89.4073       3 -45.2540       4 -45.4489       5 -45.4498
       6 -48.4410       7-119.3281       8-120.8583



 E-fermi :  -6.3816     XC(G=0):  -0.1181     alpha+bet : -0.0453

 Fermi energy:        -6.3816276537

 k-point     1 :       0.0000    0.0000    0.0000
  band No.  band energies     occupation 
      1     -27.7311      2.00000
      2     -25.4505      2.00000
      3     -18.8996      2.00000
      4     -15.1679      2.00000
      5     -12.0472      2.00000
      6     -11.6339      2.00000
      7     -11.5754      2.00000
      8     -10.0786      2.00000
      9      -9.5848      2.00000
     10      -9.5690      2.00000
     11      -7.8238      2.00000
     12      -6.5005      2.00000
     13      -1.1766      0.00000
     14      -0.7141      0.00000
     15      -0.1136      0.00000
     16       0.0738      0.00000
     17       0.2683      0.00000
     18       0.3638      0.00000
     19       0.3903      0.00000
     20       1.2848      0.00000


--------------------------------------------------------------------------------------------------------


 soft charge-density along one line, spin component           1
         0         1         2         3         4         5         6         7         8         9
 total charge-density along one line

 pseudopotential strength for first ion, spin component:           1
 12.730  21.423  -0.002   0.000   0.004  -0.003   0.000   0.007
 21.423  36.051  -0.003   0.000   0.007  -0.005   0.000   0.012
 -0.002  -0.003  -3.180   0.000   0.000  -5.702   0.000   0.000
  0.000   0.000   0.000  -3.181  -0.000   0.000  -5.702  -0.000
  0.004   0.007   0.000  -0.000  -3.181   0.000  -0.000  -5.703
 -0.003  -0.005  -5.702   0.000   0.000 -10.199   0.000   0.000
  0.000   0.000   0.000  -5.702  -0.000   0.000 -10.200  -0.000
  0.007   0.012   0.000  -0.000  -5.703   0.000  -0.000 -10.202
 total augmentation occupancy for first ion, spin component:           1
  7.677  -2.653  -0.046   0.001   0.218   0.022  -0.000  -0.131
 -2.653   0.932   0.031  -0.000  -0.154  -0.012   0.000   0.082
 -0.046   0.031   5.932  -0.001   0.012  -1.864   0.000  -0.005
  0.001  -0.000  -0.001   5.812   0.000   0.000  -1.832  -0.000
  0.218  -0.154   0.012   0.000   6.003  -0.005  -0.000  -1.977
  0.022  -0.012  -1.864   0.000  -0.005   0.588  -0.000   0.002
 -0.000   0.000   0.000  -1.832  -0.000  -0.000   0.579   0.000
 -0.131   0.082  -0.005  -0.000  -1.977   0.002   0.000   0.660


------------------------ aborting loop because EDIFF is reached ----------------------------------------


    FORLOC:  cpu time      0.0330: real time      0.0330
    FORNL :  cpu time      0.0185: real time      0.0185
    FORCOR:  cpu time      0.5107: real time      0.5111
    OFIELD:  cpu time      0.0062: real time      0.0069

  Hirshfeld charges:
            ion         q(e)     
   ------------------------------
      1     C       -0.11113407
      2     C        0.19153347
      3     H        0.05691632
      4     H        0.05918601
      5     H        0.05917190
      6     H        0.16892347
      7     O       -0.25810210
      8     O       -0.16649500

  Atomic reference data used in the T-S method for vdW correction:
            C6at              R0at           ALPHAat      REFSTATE
            (au)              (au)            (au)                
   ---------------------------------------------------------------
   C          46.600          3.590         12.000         0
   H           6.500          3.099          4.500         0
   O          15.600          3.194          5.400         0

  Tkatchenko/Scheffler method for vdW energy calculation
  ---------------------------------------------------------------------------------------------

  Parameters of vdW forcefield:
            C6ts              R0ts           ALPHAts        RELVOL
            (au)              (au)            (au)                
   ---------------------------------------------------------------
   C          26.225          3.262          9.002          0.75017488
   C          31.123          3.357          9.807          0.81723532
   H           2.289          2.604          2.671          0.59348238
   H           2.233          2.594          2.638          0.58617250
   H           2.234          2.594          2.638          0.58624860
   H           2.548          2.651          2.817          0.62609201
   O          14.519          3.156          5.210          0.96473088
   O          12.211          3.066          4.778          0.88472443

  vdW correction parametrized for the method pbe       

  IVDW =   2
  VDW_RADIUS =    50.000 A
  VDW_IDAMPF =  0
  VDW_S6 =     1.000
  VDW_SR =     0.940
  VDW_D =    20.000
  LVDW_ONECELL = F F F
  LVDW_SAMETYPE T T T
  LVDW_EWALD = F

  Number of pair interactions contributing to vdW energy:    1840
  Edisp (eV):   -0.02203
    FORVDW:  cpu time      6.4419: real time      6.4444

 VOLUME and BASIS-vectors are now :
 -----------------------------------------------------------------------------
  energy-cutoff  :     1000.00
  volume of cell :    10648.00
      direct lattice vectors                 reciprocal lattice vectors
    22.000000000  0.000000000  0.000000000     0.045454545  0.000000000  0.000000000
     0.000000000 22.000000000  0.000000000     0.000000000  0.045454545  0.000000000
     0.000000000  0.000000000 22.000000000     0.000000000  0.000000000  0.045454545

  length of vectors
    22.000000000 22.000000000 22.000000000     0.045454545  0.045454545  0.045454545


 FORCES acting on ions:
    Electron-Ion                     Ewald-Force                    Non-Local-Force
 -----------------------------------------------------------------------------------------------
   0.161E+03 -.127E+02 0.145E+00   -.163E+03 0.137E+02 -.145E+00   0.245E+01 -.103E+01 -.326E-02
   0.787E+02 0.132E+02 0.132E+00   -.842E+02 -.708E+01 -.143E+00   0.549E+01 -.659E+01 0.160E-01
   0.440E+02 -.606E+02 0.314E-01   -.459E+02 0.661E+02 -.321E-01   0.188E+01 -.543E+01 0.172E-02
   0.449E+02 0.277E+02 0.530E+02   -.469E+02 -.305E+02 -.575E+02   0.197E+01 0.268E+01 0.447E+01
   0.450E+02 0.277E+02 -.529E+02   -.470E+02 -.305E+02 0.574E+02   0.197E+01 0.269E+01 -.447E+01
   -.108E+03 0.219E+02 0.240E+00   0.116E+03 -.214E+02 -.260E+00   -.825E+01 -.480E+00 0.237E-01
   -.197E+03 -.292E+03 0.160E+00   0.227E+03 0.336E+03 -.171E+00   -.301E+02 -.440E+02 0.786E-02
   -.698E+02 0.286E+03 -.638E+00   0.439E+02 -.326E+03 0.802E+00   0.260E+02 0.401E+02 -.172E+00
 -----------------------------------------------------------------------------------------------
   -.137E+01 0.121E+02 0.126E+00   -.426E-13 0.000E+00 0.810E-14   0.137E+01 -.121E+02 -.125E+00


 POSITION                                       TOTAL-FORCE (eV/Angst)
 -----------------------------------------------------------------------------------
      9.70683     11.13026     11.00030         0.053726     -0.013005     -0.003410
     11.20960     11.11776     11.00128         0.040714     -0.107270      0.004355
      9.35016     12.16050     11.00002        -0.034487      0.073603      0.000957
      9.32984     10.60096     10.11785        -0.033856     -0.032354     -0.050269
      9.32921     10.60076     11.88215        -0.038012     -0.033793      0.054227
     12.67079      9.91916     11.00080         0.008312      0.039644      0.004270
     11.93428     12.08798     11.00089         0.061620      0.104178     -0.003626
     11.69701      9.83950     11.00357        -0.058017     -0.031002     -0.006504
 -----------------------------------------------------------------------------------
    total drift:                               -0.000304     -0.000398      0.000037


--------------------------------------------------------------------------------------------------------



  FREE ENERGIE OF THE ION-ELECTRON SYSTEM (eV)
  ---------------------------------------------------
  free  energy   TOTEN  =       -46.95069720 eV

  energy  without entropy=      -46.95069720  energy(sigma->0) =      -46.95069720



--------------------------------------------------------------------------------------------------------


    POTLOK:  cpu time      0.5818: real time      0.5826


--------------------------------------------------------------------------------------------------------


 stress matrix after NEB project (eV)
      0.01385     -0.00549      0.00004
     -0.00549     -0.00068     -0.00001
      0.00004     -0.00001      0.00328
  FORCES: max atom, RMS     0.121092    0.082004
  FORCE total and by dimension    0.231943    0.107270
  Stress total and by dimension    0.016224    0.013848
     LOOP+:  cpu time     42.9188: real time     43.2248
    4ORBIT:  cpu time      0.0000: real time      0.0000

 total amount of memory used by VASP MPI-rank0    92255. kBytes
=======================================================================

   base      :      30000. kBytes
   nonl-proj :       1908. kBytes
   fftplans  :      20101. kBytes
   grid      :      38814. kBytes
   one-center:          1. kBytes
   wavefun   :       1431. kBytes

  
  
 General timing and accounting informations for this job:
 ========================================================
  
                  Total CPU time used (sec):       73.349
                            User time (sec):       69.388
                          System time (sec):        3.961
                         Elapsed time (sec):       78.763
  
                   Maximum memory used (kb):      284412.
                   Average memory used (kb):          N/A
  
                          Minor page faults:       157125
                          Major page faults:          339
                 Voluntary context switches:         6326
