       N       E                     dE             d eps       ncg     rms          ort
DAV:   1     0.163145652894E+05    0.16315E+05   -0.11819E+06   896   0.253E+03
DAV:   2    -0.195134256522E+03   -0.16510E+05   -0.15801E+05   896   0.410E+02
DAV:   3    -0.256868447088E+04   -0.23736E+04   -0.23448E+04   896   0.163E+02
DAV:   4    -0.266752859988E+04   -0.98844E+02   -0.97913E+02   896   0.345E+01
DAV:   5    -0.267190374539E+04   -0.43751E+01   -0.43707E+01   896   0.696E+00
SDA:   6    -0.209129648543E+04    0.58061E+03   -0.43707E+01   896   0.156E+04 0.000E+00
CGA:   7    -0.236443426943E+04   -0.27314E+03   -0.27217E+03   896   0.994E+02-0.975E+01
CGA:   8    -0.239270805132E+04   -0.28274E+02   -0.28161E+02   896   0.269E+02 0.851E+00
CGA:   9    -0.240249173635E+04   -0.97837E+01   -0.98771E+01   896   0.938E+01-0.583E+00
CGA:  10    -0.240567444423E+04   -0.31827E+01   -0.31999E+01   896   0.233E+01-0.105E+00
CGA:  11    -0.240649636794E+04   -0.82192E+00   -0.82321E+00   896   0.512E+00-0.765E-02
CGA:  12    -0.240668110526E+04   -0.18474E+00   -0.18480E+00   896   0.113E+00-0.436E-03
CGA:  13    -0.240672673666E+04   -0.45631E-01   -0.45676E-01   896   0.292E-01-0.275E-03
CGA:  14    -0.240673892464E+04   -0.12188E-01   -0.12223E-01   896   0.938E-02-0.199E-03
CGA:  15    -0.240674266175E+04   -0.37371E-02   -0.37336E-02   896   0.343E-02 0.241E-04
CGA:  16    -0.240674404946E+04   -0.13877E-02   -0.13867E-02   896   0.117E-02 0.711E-05
CGA:  17    -0.240674455587E+04   -0.50641E-03   -0.50581E-03   896   0.395E-03 0.371E-05
CGA:  18    -0.240674473879E+04   -0.18292E-03   -0.18672E-03   896   0.137E-03-0.191E-04
CGA:  19    -0.240674479957E+04   -0.60773E-04   -0.62493E-04   896   0.445E-04-0.879E-05
CGA:  20    -0.240674481705E+04   -0.17485E-04   -0.17733E-04   896   0.156E-04-0.186E-05
CGA:  21    -0.240674482269E+04   -0.56400E-05   -0.56200E-05   896   0.462E-05 0.269E-06
CGA:  22    -0.240674482475E+04   -0.20599E-05   -0.20303E-05   896   0.143E-05 0.232E-06
CGA:  23    -0.240674482554E+04   -0.79069E-06   -0.87098E-06   896   0.794E-06-0.296E-06
CGA:  24    -0.240674482583E+04   -0.28679E-06   -0.31317E-06   896   0.348E-06-0.151E-06
CGA:  25    -0.240674482597E+04   -0.14505E-06   -0.16478E-06   896   0.171E-06-0.758E-07
CGA:  26    -0.240674482598E+04   -0.68685E-08   -0.21743E-07   896   0.939E-07 0.819E-07
CGA:  27    -0.240674482598E+04   -0.13388E-08   -0.17450E-07   896   0.463E-07 0.797E-07
CGA:  28    -0.240674482599E+04   -0.72177E-08   -0.10419E-07   896   0.238E-07 0.304E-07
   1 F= -.24067448E+04 E0= -.24067448E+04  d E =-.215758E-14
