 vasp.6.4.1 05Apr23 (build Jun  6 2023 14:46:38) gamma-only                      
 executed on        HPECrayEX_GCC date 2024.08.21  23:22:09
 running  512 mpi-ranks, with    1 threads/rank, on    4 nodes
 distrk:  each k-point on  512 cores,    1 groups
 distr:  one band on NCORE=   2 cores,  256 groups


--------------------------------------------------------------------------------------------------------


 INCAR:
   ALGO = Conjugate
   NCORE = 2
   PREC = Accurate
   EDIFF = 1E-7
   ENCUT = 1000
   ISMEAR = 0
   SIGMA = 0.01
   ISIF = 0
   SYMPREC = 1E-7
   IVDW = 11
   LWAVE = .FALSE.
   LCHARG = .FALSE.
   LWAVE = .FALSE.
   LCHARG = .FALSE.

 POTCAR:    PAW_PBE C_h 06Feb2004                 
 POTCAR:    PAW_PBE H_h 06Feb2004                 
 POTCAR:    PAW_PBE O_h 06Feb2004                 
 POTCAR:    PAW_PBE C_h 06Feb2004                 
   VRHFIN =C: s2p2                                                                                  
   LEXCH  = PE                                                                                      
   EATOM  =   147.1560 eV,   10.8157 Ry                                                             
                                                                                                    
   TITEL  = PAW_PBE C_h 06Feb2004                                                                   
   LULTRA =        F    use ultrasoft PP ?                                                          
   IUNSCR =        1    unscreen: 0-lin 1-nonlin 2-no                                               
   RPACOR =    0.800    partial core radius                                                         
   POMASS =   12.011; ZVAL   =    4.000    mass and valenz                                          
   RCORE  =    1.100    outmost cutoff radius                                                       
   RWIGS  =    1.630; RWIGS  =    0.863    wigner-seitz radius (au A)                               
   ENMAX  =  700.000; ENMIN  =  500.000 eV                                                          
   ICORE  =        2    local potential                                                             
   LCOR   =        T    correct aug charges                                                         
   LPAW   =        T    paw PP                                                                      
   EAUG   =  946.768                                                                                
   DEXC   =    0.000                                                                                
   RMAX   =    1.128    core radius for proj-oper                                                   
   RAUG   =    1.300    factor for augmentation sphere                                              
   RDEP   =    1.162    radius for radial grids                                                     
   RDEPT  =    1.088    core radius for aug-charge                                                  
                                                                                                    
   Atomic configuration                                                                             
    4 entries                                                                                       
     n  l   j            E        occ.                                                              
     1  0  0.50      -273.3789   2.0000                                                             
     2  0  0.50       -13.7508   2.0000                                                             
     2  1  0.50        -5.2854   2.0000                                                             
     3  2  1.50        -5.4423   0.0000                                                             
   Description                                                                                      
     l       E           TYP  RCUT    TYP  RCUT                                                     
     0    -13.7508458     23  1.100                                                                 
     0     -8.2022199     23  1.100                                                                 
     1     -5.2854383     23  1.100                                                                 
     1      1.1560700     23  1.100                                                                 
     2     -5.4423304      7  1.100                                                                 
  local pseudopotential read in
  partial core-charges read in
  partial kinetic energy density read in
  atomic valenz-charges read in
  non local Contribution for L=           0  read in
    real space projection operators read in
  non local Contribution for L=           0  read in
    real space projection operators read in
  non local Contribution for L=           1  read in
    real space projection operators read in
  non local Contribution for L=           1  read in
    real space projection operators read in
    PAW grid and wavefunctions read in

   number of l-projection  operators is LMAX  =           4
   number of lm-projection operators is LMMAX =           8

 POTCAR:    PAW_PBE H_h 06Feb2004                 
   VRHFIN =H: ultrasoft test                                                                        
   LEXCH  = PE                                                                                      
   EATOM  =    12.4884 eV,    0.9179 Ry                                                             
                                                                                                    
   TITEL  = PAW_PBE H_h 06Feb2004                                                                   
   LULTRA =        F    use ultrasoft PP ?                                                          
   IUNSCR =        0    unscreen: 0-lin 1-nonlin 2-no                                               
   RPACOR =    0.000    partial core radius                                                         
   POMASS =    1.000; ZVAL   =    1.000    mass and valenz                                          
   RCORE  =    0.800    outmost cutoff radius                                                       
   RWIGS  =    0.700; RWIGS  =    0.370    wigner-seitz radius (au A)                               
   ENMAX  =  700.000; ENMIN  =  350.000 eV                                                          
   RCLOC  =    0.701    cutoff for local pot                                                        
   LCOR   =        T    correct aug charges                                                         
   LPAW   =        T    paw PP                                                                      
   EAUG   = 1000.000                                                                                
   RMAX   =    0.819    core radius for proj-oper                                                   
   RAUG   =    1.000    factor for augmentation sphere                                              
   RDEP   =    0.817    radius for radial grids                                                     
   RDEPT  =    0.817    core radius for aug-charge                                                  
                                                                                                    
   Atomic configuration                                                                             
    2 entries                                                                                       
     n  l   j            E        occ.                                                              
     1  0  0.50        -6.4927   1.0000                                                             
     2  1  0.50        -3.4015   0.0000                                                             
   Description                                                                                      
     l       E           TYP  RCUT    TYP  RCUT                                                     
     0     -6.4927493     23  0.800                                                                 
     0      6.8029130     23  0.800                                                                 
     1     -6.8029130     23  0.800                                                                 
  local pseudopotential read in
  atomic valenz-charges read in
  non local Contribution for L=           0  read in
    real space projection operators read in
  non local Contribution for L=           0  read in
    real space projection operators read in
  non local Contribution for L=           1  read in
    real space projection operators read in
    PAW grid and wavefunctions read in

   number of l-projection  operators is LMAX  =           3
   number of lm-projection operators is LMMAX =           5

 POTCAR:    PAW_PBE O_h 06Feb2004                 
   VRHFIN =O: s2p4                                                                                  
   LEXCH  = PE                                                                                      
   EATOM  =   432.3788 eV,   31.7789 Ry                                                             
                                                                                                    
   TITEL  = PAW_PBE O_h 06Feb2004                                                                   
   LULTRA =        F    use ultrasoft PP ?                                                          
   IUNSCR =        1    unscreen: 0-lin 1-nonlin 2-no                                               
   RPACOR =    0.800    partial core radius                                                         
   POMASS =   16.000; ZVAL   =    6.000    mass and valenz                                          
   RCORE  =    1.100    outmost cutoff radius                                                       
   RWIGS  =    1.400; RWIGS  =    0.741    wigner-seitz radius (au A)                               
   ENMAX  =  700.000; ENMIN  =  500.000 eV                                                          
   ICORE  =        2    local potential                                                             
   LCOR   =        T    correct aug charges                                                         
   LPAW   =        T    paw PP                                                                      
   EAUG   =  888.804                                                                                
   DEXC   =    0.000                                                                                
   RMAX   =    1.128    core radius for proj-oper                                                   
   RAUG   =    1.300    factor for augmentation sphere                                              
   RDEP   =    1.125    radius for radial grids                                                     
   RDEPT  =    1.088    core radius for aug-charge                                                  
                                                                                                    
   Atomic configuration                                                                             
    4 entries                                                                                       
     n  l   j            E        occ.                                                              
     1  0  0.50      -514.6923   2.0000                                                             
     2  0  0.50       -23.9615   2.0000                                                             
     2  1  0.50        -9.0305   4.0000                                                             
     3  2  1.50        -9.5241   0.0000                                                             
   Description                                                                                      
     l       E           TYP  RCUT    TYP  RCUT                                                     
     0    -23.9615319     23  1.100                                                                 
     0    -25.3221145     23  1.100                                                                 
     1     -9.0304911     23  1.100                                                                 
     1     -5.4802209     23  1.100                                                                 
     2     -9.5240782      7  1.100                                                                 
  local pseudopotential read in
  partial core-charges read in
  partial kinetic energy density read in
  atomic valenz-charges read in
  non local Contribution for L=           0  read in
    real space projection operators read in
  non local Contribution for L=           0  read in
    real space projection operators read in
  non local Contribution for L=           1  read in
    real space projection operators read in
  non local Contribution for L=           1  read in
    real space projection operators read in
    PAW grid and wavefunctions read in

   number of l-projection  operators is LMAX  =           4
   number of lm-projection operators is LMMAX =           8

  PAW_PBE C_h 06Feb2004                 :
 energy of atom  1       EATOM= -147.1560
 kinetic energy error for atom=    0.0031 (will be added to EATOM!!)
  PAW_PBE H_h 06Feb2004                 :
 energy of atom  2       EATOM=  -12.4884
 kinetic energy error for atom=    0.0006 (will be added to EATOM!!)
  PAW_PBE O_h 06Feb2004                 :
 energy of atom  3       EATOM= -432.3788
 kinetic energy error for atom=    0.0171 (will be added to EATOM!!)


 POSCAR:  C  H  O
  positions in cartesian coordinates
  No initial velocities read in
 exchange correlation table for  LEXCH =        8
   RHO(1)=    0.500       N(1)  =     2000
   RHO(2)=  100.500       N(2)  =     4000

 VTST: version 4.1, (05/19/21)

 CHAIN: initializing optimizer
 
 OPT: Using VASP Dynamics algorithm
 CHAIN: Read ICHAIN            0

 POSCAR:  C  H  O
  positions in cartesian coordinates
  No initial velocities read in



--------------------------------------------------------------------------------------------------------


 ion  position               nearest neighbor table
   1  0.518  0.480  0.473-   5 1.21   7 1.33   2 1.54
   2  0.482  0.520  0.527-   6 1.21   8 1.33   1 1.54
   3  0.464  0.411  0.504-   7 0.99
   4  0.536  0.589  0.496-   8 0.98
   5  0.561  0.505  0.437-   1 1.21
   6  0.439  0.495  0.563-   2 1.21
   7  0.498  0.416  0.469-   3 0.99   1 1.33
   8  0.502  0.584  0.531-   4 0.98   2 1.33

  LATTYP: Found a simple cubic cell.
 ALAT       =    20.0000000000
  
  Lattice vectors:
  
 A1 = (  20.0000000000,   0.0000000000,   0.0000000000)
 A2 = (   0.0000000000,  20.0000000000,   0.0000000000)
 A3 = (   0.0000000000,   0.0000000000,  20.0000000000)


Analysis of symmetry for initial positions (statically):
=====================================================================
 Subroutine PRICEL returns:
 Original cell was already a primitive cell.
 

 Routine SETGRP: Setting up the symmetry group for a 
 simple cubic supercell.


 Subroutine GETGRP returns: Found  1 space group operations
 (whereof  1 operations were pure point group operations)
 out of a pool of 48 trial point group operations.


The static configuration has the point symmetry C_1 .


Analysis of symmetry for dynamics (positions and initial velocities):
=====================================================================
 Subroutine PRICEL returns:
 Original cell was already a primitive cell.
 

 Routine SETGRP: Setting up the symmetry group for a 
 simple cubic supercell.


 Subroutine GETGRP returns: Found  1 space group operations
 (whereof  1 operations were pure point group operations)
 out of a pool of 48 trial point group operations.


The dynamic configuration has the point symmetry C_1 .


 Subroutine INISYM returns: Found  1 space group operations
 (whereof  1 operations are pure point group operations),
 and found     1 'primitive' translations


----------------------------------------------------------------------------------------

                                     Primitive cell                                     

  volume of cell :    8000.0000

  direct lattice vectors                    reciprocal lattice vectors
    20.000000000  0.000000000  0.000000000     0.050000000  0.000000000  0.000000000
     0.000000000 20.000000000  0.000000000     0.000000000  0.050000000  0.000000000
     0.000000000  0.000000000 20.000000000     0.000000000  0.000000000  0.050000000

  length of vectors
    20.000000000 20.000000000 20.000000000     0.050000000  0.050000000  0.050000000

  position of ions in fractional coordinates (direct lattice)
     0.518293500  0.479784500  0.472655750
     0.481704000  0.520187000  0.527336750
     0.463708000  0.410705500  0.503854750
     0.536252500  0.589294500  0.496108750
     0.560598500  0.504984500  0.437449750
     0.439401500  0.495016000  0.562550250
     0.498234500  0.416295000  0.469172750
     0.501723000  0.583682500  0.530771250

  ion indices of the primitive-cell ions
   primitive index   ion index
                 1           1
                 2           2
                 3           3
                 4           4
                 5           5
                 6           6
                 7           7
                 8           8

----------------------------------------------------------------------------------------



 KPOINTS: auto                                    

Automatic generation of k-mesh.
 Grid dimensions read from file:
 generate k-points for:    1    1    1

 Generating k-lattice:

  Cartesian coordinates                     Fractional coordinates (reciprocal lattice)
     0.050000000  0.000000000  0.000000000     1.000000000  0.000000000  0.000000000
     0.000000000  0.050000000  0.000000000     0.000000000  1.000000000  0.000000000
     0.000000000  0.000000000  0.050000000     0.000000000  0.000000000  1.000000000

  Length of vectors
     0.050000000  0.050000000  0.050000000

  Shift w.r.t. Gamma in fractional coordinates (k-lattice)
     0.000000000  0.000000000  0.000000000

 
 Subroutine IBZKPT returns following result:
 ===========================================
 
 Found      1 irreducible k-points:
 
 Following reciprocal coordinates:
            Coordinates               Weight
  0.000000  0.000000  0.000000      1.000000
 
 Following cartesian coordinates:
            Coordinates               Weight
  0.000000  0.000000  0.000000      1.000000
 


--------------------------------------------------------------------------------------------------------




 Dimension of arrays:
   k-points           NKPTS =      1   k-points in BZ     NKDIM =      1   number of bands    NBANDS=    256
   number of dos      NEDOS =    301   number of ions     NIONS =      8
   non local maximal  LDIM  =      4   non local SUM 2l+1 LMDIM =      8
   total plane-waves  NPLWV = ******
   max r-space proj   IRMAX =      1   max aug-charges    IRDMAX=   8641
   dimension x,y,z NGX =   210 NGY =  210 NGZ =  210
   dimension x,y,z NGXF=   420 NGYF=  420 NGZF=  420
   support grid    NGXF=   420 NGYF=  420 NGZF=  420
   ions per type =               2   2   4
   NGX,Y,Z   is equivalent  to a cutoff of  17.46, 17.46, 17.46 a.u.
   NGXF,Y,Z  is equivalent  to a cutoff of  34.91, 34.91, 34.91 a.u.

 SYSTEM =  unknown system                          
 POSCAR =   C  H  O                                

 Startparameter for this run:
   NWRITE =      2    write-flag & timer
   PREC   = accura    normal or accurate (medium, high low for compatibility)
   ISTART =      0    job   : 0-new  1-cont  2-samecut
   ICHARG =      2    charge: 1-file 2-atom 10-const
   ISPIN  =      1    spin polarized calculation?
   LNONCOLLINEAR =      F non collinear calculations
   LSORBIT =      F    spin-orbit coupling
   INIWAV =      1    electr: 0-lowe 1-rand  2-diag
   LASPH  =      F    aspherical Exc in radial PAW
 Electronic Relaxation 1
   ENCUT  = 1000.0 eV  73.50 Ry    8.57 a.u.  51.57 51.57 51.57*2*pi/ulx,y,z
   ENINI  = 1000.0     initial cutoff
   ENAUG  = 1000.0 eV  augmentation charge cutoff
   NELM   =     60;   NELMIN=  2; NELMDL= -5     # of ELM steps 
   EDIFF  = 0.1E-06   stopping-criterion for ELM
   LREAL  =      F    real-space projection
   NLSPLINE    = F    spline interpolate recip. space projectors
   LCOMPAT=      F    compatible to vasp.4.4
   GGA_COMPAT  = T    GGA compatible to vasp.4.4-vasp.4.6
   LMAXPAW     = -100 max onsite density
   LMAXMIX     =    2 max onsite mixed and CHGCAR
   VOSKOWN=      0    Vosko Wilk Nusair interpolation
   ROPT   =    0.00000   0.00000   0.00000
 Ionic relaxation
   EDIFFG = 0.1E-05   stopping-criterion for IOM
   NSW    =      0    number of steps for IOM
   NBLOCK =      1;   KBLOCK =      1    inner block; outer block 
   IBRION =     -1    ionic relax: 0-MD 1-quasi-New 2-CG
   NFREE  =      0    steps in history (QN), initial steepest desc. (CG)
   ISIF   =      0    stress and relaxation
   IWAVPR =     10    prediction:  0-non 1-charg 2-wave 3-comb
   ISYM   =      2    0-nonsym 1-usesym 2-fastsym
   LCORR  =      T    Harris-Foulkes like correction to forces

   POTIM  = 0.5000    time-step for ionic-motion
   TEIN   =    0.0    initial temperature
   TEBEG  =    0.0;   TEEND  =   0.0 temperature during run
   SMASS  =  -3.00    Nose mass-parameter (am)
   estimated Nose-frequenzy (Omega)   =  0.10E-29 period in steps = 0.13E+47 mass=  -0.914E-26a.u.
   SCALEE = 1.0000    scale energy and forces
   NPACO  =    256;   APACO  = 10.0  distance and # of slots for P.C.
   PSTRESS=    0.0 pullay stress

  Mass of Ions in am
   POMASS =  12.01  1.00 16.00
  Ionic Valenz
   ZVAL   =   4.00  1.00  6.00
  Atomic Wigner-Seitz radii
   RWIGS  =  -1.00 -1.00 -1.00
  virtual crystal weights 
   VCA    =   1.00  1.00  1.00
   NELECT =      34.0000    total number of electrons
   NUPDOWN=      -1.0000    fix difference up-down

 DOS related values:
   EMIN   =  10.00;   EMAX   =-10.00  energy-range for DOS
   EFERMI =   0.00;   METHOD = LEGACY      
   ISMEAR =     0;   SIGMA  =   0.01  broadening in eV -4-tet -1-fermi 0-gaus

 Electronic relaxation 2 (details)
   IALGO  =     58    algorithm
   LDIAG  =      T    sub-space diagonalisation (order eigenvalues)
   LSUBROT=      F    optimize rotation matrix (better conditioning)
   TURBO    =      0    0=normal 1=particle mesh
   IRESTART =      0    0=no restart 2=restart with 2 vectors
   NREBOOT  =      0    no. of reboots
   NMIN     =      0    reboot dimension
   EREF     =   0.00    reference energy to select bands
   IMIX   =      4    mixing-type and parameters
     AMIX     =   0.40;   BMIX     =  1.00
     AMIX_MAG =   1.60;   BMIX_MAG =  1.00
     AMIN     =   0.10
     WC   =   100.;   INIMIX=   1;  MIXPRE=   1;  MAXMIX= -45

 Intra band minimization:
   WEIMIN = 0.0000     energy-eigenvalue tresh-hold
   EBREAK =  0.98E-10  absolut break condition
   DEPER  =   0.30     relativ break condition  

   TIME   =   0.40     timestep for ELM

  volume/ion in A,a.u.               =    1000.00      6748.33
  Fermi-wavevector in a.u.,A,eV,Ry     =   0.265178  0.501114  0.956755  0.070319
  Thomas-Fermi vector in A             =   1.098052

 Write flags
   LWAVE        =      F    write WAVECAR
   LDOWNSAMPLE  =      F    k-point downsampling of WAVECAR
   LCHARG       =      F    write CHGCAR
   LVTOT        =      F    write LOCPOT, total local potential
   LVHAR        =      F    write LOCPOT, Hartree potential only
   LELF         =      F    write electronic localiz. function (ELF)
   LORBIT       =      0    0 simple, 1 ext, 2 COOP (PROOUT), +10 PAW based schemes


 Dipole corrections
   LMONO  =      F    monopole corrections only (constant potential shift)
   LDIPOL =      F    correct potential (dipole corrections)
   IDIPOL =      0    1-x, 2-y, 3-z, 4-all directions 
   EPSILON=  1.0000000 bulk dielectric constant

 Exchange correlation treatment:
   GGA     =    --    GGA type
   LEXCH   =     8    internal setting for exchange type
   LIBXC   =     F    Libxc                    
   VOSKOWN =     0    Vosko Wilk Nusair interpolation
   LHFCALC =     F    Hartree Fock is set to
   LHFONE  =     F    Hartree Fock one center treatment
   AEXX    =    0.0000 exact exchange contribution

 Linear response parameters
   LEPSILON=     F    determine dielectric tensor
   LRPA    =     F    only Hartree local field effects (RPA)
   LNABLA  =     F    use nabla operator in PAW spheres
   LVEL    =     F    velocity operator in full k-point grid
   CSHIFT  =0.1000    complex shift for real part using Kramers Kronig
   OMEGAMAX=  -1.0    maximum frequency
   DEG_THRESHOLD= 0.2000000E-02 threshold for treating states as degnerate
   RTIME   =   -0.100 relaxation time in fs
  (WPLASMAI=    0.000 imaginary part of plasma frequency in eV, 0.658/RTIME)
   DFIELD  = 0.0000000 0.0000000 0.0000000 field for delta impulse in time

  Optional k-point grid parameters
   LKPOINTS_OPT  =     F    use optional k-point grid
   KPOINTS_OPT_MODE=     1    mode for optional k-point grid

 Orbital magnetization related:
   ORBITALMAG=     F  switch on orbital magnetization
   LCHIMAG   =     F  perturbation theory with respect to B field
   DQ        =  0.001000  dq finite difference perturbation B field
   LLRAUG    =     F  two centre corrections for induced B field
   LBONE     =     F  B-component reconstruction in AE one-centre
   LVGVCALC  =     T  calculate vGv susceptibility
   LVGVAPPL  =     F  apply vGv susceptibility instead of pGv for G=0

 Random number generation:
   RANDOM_GENERATOR = DEFAULT
   PCG_SEED         = not used


--------------------------------------------------------------------------------------------------------


 Static calculation
 charge density and potential will be updated during run
 non-spin polarized calculation
 Conjugate gradient for all bands (Freysoldt, et al. PRB 79, 241103 (2009))
 preconditioned conjugated gradient                                        
 perform sub-space diagonalisation
    before iterative eigenvector-optimisation
 modified Broyden-mixing scheme, WC =      100.0
 initial mixing is a Kerker type mixing with AMIX =  0.4000 and BMIX =      1.0000
 Hartree-type preconditioning will be used
 using additional bands          239
 reciprocal scheme for non local part
 use partial core corrections
 no Harris-corrections to forces 
 use gradient corrections 
 use of overlap-Matrix (Vanderbilt PP)
 Gauss-broadening in eV      SIGMA  =   0.01


--------------------------------------------------------------------------------------------------------


  energy-cutoff  :     1000.00
  volume of cell :     8000.00
      direct lattice vectors                 reciprocal lattice vectors
    20.000000000  0.000000000  0.000000000     0.050000000  0.000000000  0.000000000
     0.000000000 20.000000000  0.000000000     0.000000000  0.050000000  0.000000000
     0.000000000  0.000000000 20.000000000     0.000000000  0.000000000  0.050000000

  length of vectors
    20.000000000 20.000000000 20.000000000     0.050000000  0.050000000  0.050000000



 k-points in units of 2pi/SCALE and weight: auto                                    
   0.00000000  0.00000000  0.00000000       1.000

 k-points in reciprocal lattice and weights: auto                                    
   0.00000000  0.00000000  0.00000000       1.000

 position of ions in fractional coordinates (direct lattice) 
   0.51829350  0.47978450  0.47265575
   0.48170400  0.52018700  0.52733675
   0.46370800  0.41070550  0.50385475
   0.53625250  0.58929450  0.49610875
   0.56059850  0.50498450  0.43744975
   0.43940150  0.49501600  0.56255025
   0.49823450  0.41629500  0.46917275
   0.50172300  0.58368250  0.53077125

 position of ions in cartesian coordinates  (Angst):
  10.36587000  9.59569000  9.45311500
   9.63408000 10.40374000 10.54673500
   9.27416000  8.21411000 10.07709500
  10.72505000 11.78589000  9.92217500
  11.21197000 10.09969000  8.74899500
   8.78803000  9.90032000 11.25100500
   9.96469000  8.32590000  9.38345500
  10.03446000 11.67365000 10.61542500



--------------------------------------------------------------------------------------------------------


 use parallel FFT for orbitals z direction half grid
 k-point   1 :   0.0000 0.0000 0.0000  plane waves:  287166

 maximum and minimum number of plane-waves per node :    143587   143579

 maximum number of plane-waves:    287166
 maximum index in each direction: 
   IXMAX=   51   IYMAX=   51   IZMAX=   51
   IXMIN=  -51   IYMIN=  -51   IZMIN=    0


 parallel 3D FFT for wavefunctions:
    minimum data exchange during FFTs selected (reduces bandwidth)
 parallel 3D FFT for charge:
    minimum data exchange during FFTs selected (reduces bandwidth)


 total amount of memory used by VASP MPI-rank0   382402. kBytes
=======================================================================

   base      :      30000. kBytes
   nonl-proj :      45957. kBytes
   fftplans  :     102640. kBytes
   grid      :     196902. kBytes
   one-center:          6. kBytes
   wavefun   :       6897. kBytes

     INWAV:  cpu time      0.0001: real time      0.0001
 Broyden mixing: mesh for mixing (old mesh)
   NGX =103   NGY =103   NGZ =103
  (NGX  =420   NGY  =420   NGZ  =420)
  gives a total of ****** points

 initial charge density was supplied:
 charge density of overlapping atoms calculated
 number of electron      34.0000000 magnetization 
 keeping initial charge density in first step


--------------------------------------------------------------------------------------------------------


 Maximum index for augmentation-charges            0 (set IRDMAX)


--------------------------------------------------------------------------------------------------------


 First call to EWALD:  gamma=   0.089
 Maximum number of real-space cells 3x 3x 3
 Maximum number of reciprocal cells 3x 3x 3

    FEWALD:  cpu time      0.0022: real time      0.0022


--------------------------------------- Ionic step        1  -------------------------------------------




--------------------------------------- Iteration      1(   1)  ---------------------------------------


    POTLOK:  cpu time      0.6013: real time      0.6027
    SETDIJ:  cpu time      0.0121: real time      0.0127
    TRIAL :  cpu time      4.1453: real time      4.1481
    CORREC:  cpu time      0.0027: real time      0.0027
    --------------------------------------------
      LOOP:  cpu time      4.7702: real time      4.7750

 eigenvalue-minimisations  :   512
 total energy-change (2. order) : 0.4345751E+03  (-0.1527334E+04)
 number of electron      34.0000000 magnetization 
 augmentation part       34.0000000 magnetization 

 Free energy of the ion-electron system (eV)
  ---------------------------------------------------
  alpha Z        PSCENC =         0.40154822
  Ewald energy   TEWEN  =      2257.36198512
  -Hartree energ DENC   =     -3871.20669808
  -exchange      EXHF   =         0.00000000
  -V(xc)+E(xc)   XCENC  =       122.99930451
  PAW double counting   =      1618.80374026    -1613.15616328
  entropy T*S    EENTRO =        -0.00635114
  eigenvalues    EBANDS =      -129.35065200
  atomic energy  EATOM  =      2048.72835245
  ---------------------------------------------------
  free energy    TOTEN  =       434.57506608 eV

  energy without entropy =      434.58141722  energy(sigma->0) =      434.57824165


--------------------------------------------------------------------------------------------------------




--------------------------------------- Iteration      1(   2)  ---------------------------------------


    TRIAL :  cpu time     12.1363: real time     12.1427
    CORREC:  cpu time      0.0002: real time      0.0002
    --------------------------------------------
      LOOP:  cpu time     12.1669: real time     12.1735

 eigenvalue-minimisations  :  1024
 total energy-change (2. order) :-0.4828662E+03  (-0.4812708E+03)
 number of electron      34.0000000 magnetization 
 augmentation part       34.0000000 magnetization 

 Free energy of the ion-electron system (eV)
  ---------------------------------------------------
  alpha Z        PSCENC =         0.40154822
  Ewald energy   TEWEN  =      2257.36198512
  -Hartree energ DENC   =     -3871.20669808
  -exchange      EXHF   =         0.00000000
  -V(xc)+E(xc)   XCENC  =       122.99930451
  PAW double counting   =      1618.80374026    -1613.15616328
  entropy T*S    EENTRO =        -0.00000000
  eigenvalues    EBANDS =      -612.22315444
  atomic energy  EATOM  =      2048.72835245
  ---------------------------------------------------
  free energy    TOTEN  =       -48.29108523 eV

  energy without entropy =      -48.29108523  energy(sigma->0) =      -48.29108523


--------------------------------------------------------------------------------------------------------




--------------------------------------- Iteration      1(   3)  ---------------------------------------


    TRIAL :  cpu time      4.3054: real time      4.3075
    CORREC:  cpu time      0.0002: real time      0.0002
    --------------------------------------------
      LOOP:  cpu time      4.3197: real time      4.3386

 eigenvalue-minimisations  :   512
 total energy-change (2. order) :-0.8652767E+01  (-0.8652767E+01)
 number of electron      34.0000000 magnetization 
 augmentation part       34.0000000 magnetization 

 Free energy of the ion-electron system (eV)
  ---------------------------------------------------
  alpha Z        PSCENC =         0.40154822
  Ewald energy   TEWEN  =      2257.36198512
  -Hartree energ DENC   =     -3871.20669808
  -exchange      EXHF   =         0.00000000
  -V(xc)+E(xc)   XCENC  =       122.99930451
  PAW double counting   =      1618.80374026    -1613.15616328
  entropy T*S    EENTRO =        -0.00000000
  eigenvalues    EBANDS =      -620.87592125
  atomic energy  EATOM  =      2048.72835245
  ---------------------------------------------------
  free energy    TOTEN  =       -56.94385203 eV

  energy without entropy =      -56.94385203  energy(sigma->0) =      -56.94385203


--------------------------------------------------------------------------------------------------------




--------------------------------------- Iteration      1(   4)  ---------------------------------------


    TRIAL :  cpu time     11.9264: real time     11.9316
    CORREC:  cpu time      0.0002: real time      0.0002
    --------------------------------------------
      LOOP:  cpu time     11.9576: real time     11.9629

 eigenvalue-minimisations  :  1024
 total energy-change (2. order) :-0.7190169E-01  (-0.7190169E-01)
 number of electron      34.0000000 magnetization 
 augmentation part       34.0000000 magnetization 

 Free energy of the ion-electron system (eV)
  ---------------------------------------------------
  alpha Z        PSCENC =         0.40154822
  Ewald energy   TEWEN  =      2257.36198512
  -Hartree energ DENC   =     -3871.20669808
  -exchange      EXHF   =         0.00000000
  -V(xc)+E(xc)   XCENC  =       122.99930451
  PAW double counting   =      1618.80374026    -1613.15616328
  entropy T*S    EENTRO =        -0.00000000
  eigenvalues    EBANDS =      -620.94782294
  atomic energy  EATOM  =      2048.72835245
  ---------------------------------------------------
  free energy    TOTEN  =       -57.01575372 eV

  energy without entropy =      -57.01575372  energy(sigma->0) =      -57.01575372


--------------------------------------------------------------------------------------------------------




--------------------------------------- Iteration      1(   5)  ---------------------------------------


    TRIAL :  cpu time      4.2798: real time      4.2812
    CORREC:  cpu time      0.0002: real time      0.0002
    CHARGE:  cpu time      0.9573: real time      0.9582
    --------------------------------------------
      LOOP:  cpu time      5.2617: real time      5.2701

 eigenvalue-minimisations  :   512
 total energy-change (2. order) :-0.2969363E-05  (-0.2968419E-05)
 number of electron      34.0000000 magnetization 
 augmentation part        0.2984804 magnetization 

 Free energy of the ion-electron system (eV)
  ---------------------------------------------------
  alpha Z        PSCENC =         0.40154822
  Ewald energy   TEWEN  =      2257.36198512
  -Hartree energ DENC   =     -3871.20669808
  -exchange      EXHF   =         0.00000000
  -V(xc)+E(xc)   XCENC  =       122.99930451
  PAW double counting   =      1618.80374026    -1613.15616328
  entropy T*S    EENTRO =        -0.00000000
  eigenvalues    EBANDS =      -620.94782591
  atomic energy  EATOM  =      2048.72835245
  ---------------------------------------------------
  free energy    TOTEN  =       -57.01575669 eV

  energy without entropy =      -57.01575669  energy(sigma->0) =      -57.01575669


--------------------------------------------------------------------------------------------------------




--------------------------------------- Iteration      1(   6)  ---------------------------------------


    POTLOK:  cpu time      0.3321: real time      0.3326
    SETDIJ:  cpu time      0.0016: real time      0.0016
    TRIAL :  cpu time      1.8421: real time      1.8442
    CORREC:  cpu time      1.8412: real time      1.8425
    CHARGE:  cpu time      0.9367: real time      0.9369
    --------------------------------------------
      LOOP:  cpu time      4.9670: real time      4.9884

 eigenvalue-minimisations  :     0
 total energy-change (2. order) : 0.1022247E+02  (-0.4975517E+01)
 number of electron      34.0000000 magnetization 
 augmentation part        0.2057494 magnetization 

 Free energy of the ion-electron system (eV)
  ---------------------------------------------------
  alpha Z        PSCENC =         0.40154822
  Ewald energy   TEWEN  =      2257.36198512
  -Hartree energ DENC   =     -4067.73373431
  -exchange      EXHF   =         0.00000000
  -V(xc)+E(xc)   XCENC  =       133.82670720
  PAW double counting   =     16346.07358908   -16343.05728982
  entropy T*S    EENTRO =        -0.00000000
  eigenvalues    EBANDS =      -422.39444515
  atomic energy  EATOM  =      2048.72835245
  ---------------------------------------------------
  free energy    TOTEN  =       -46.79328720 eV

  energy without entropy =      -46.79328720  energy(sigma->0) =      -46.79328720


--------------------------------------------------------------------------------------------------------




--------------------------------------- Iteration      1(   7)  ---------------------------------------


    POTLOK:  cpu time      0.3282: real time      0.3283
    SETDIJ:  cpu time      0.0016: real time      0.0016
    TRIAL :  cpu time      1.7891: real time      1.7902
    CORREC:  cpu time      1.7693: real time      1.7701
    CHARGE:  cpu time      0.9372: real time      0.9375
    --------------------------------------------
      LOOP:  cpu time      4.8387: real time      4.8574

 eigenvalue-minimisations  :     0
 total energy-change (2. order) :-0.4999493E+01  (-0.7216653E+00)
 number of electron      34.0000000 magnetization 
 augmentation part        0.1665290 magnetization 

 Free energy of the ion-electron system (eV)
  ---------------------------------------------------
  alpha Z        PSCENC =         0.40154822
  Ewald energy   TEWEN  =      2257.36198512
  -Hartree energ DENC   =     -3971.15889983
  -exchange      EXHF   =         0.00000000
  -V(xc)+E(xc)   XCENC  =       128.52962172
  PAW double counting   =     20414.41362038   -20410.12960961
  entropy T*S    EENTRO =        -0.00000000
  eigenvalues    EBANDS =      -519.93939885
  atomic energy  EATOM  =      2048.72835245
  ---------------------------------------------------
  free energy    TOTEN  =       -51.79278039 eV

  energy without entropy =      -51.79278039  energy(sigma->0) =      -51.79278039


--------------------------------------------------------------------------------------------------------




--------------------------------------- Iteration      1(   8)  ---------------------------------------


    POTLOK:  cpu time      0.3338: real time      0.3338
    SETDIJ:  cpu time      0.0016: real time      0.0016
    TRIAL :  cpu time      1.7895: real time      1.7911
    CORREC:  cpu time      1.7744: real time      1.7749
    CHARGE:  cpu time      0.9381: real time      0.9381
    --------------------------------------------
      LOOP:  cpu time      4.8531: real time      4.8709

 eigenvalue-minimisations  :     0
 total energy-change (2. order) :-0.7224054E+00  (-0.2695049E+00)
 number of electron      34.0000000 magnetization 
 augmentation part        0.1643413 magnetization 

 Free energy of the ion-electron system (eV)
  ---------------------------------------------------
  alpha Z        PSCENC =         0.40154822
  Ewald energy   TEWEN  =      2257.36198512
  -Hartree energ DENC   =     -3975.61824717
  -exchange      EXHF   =         0.00000000
  -V(xc)+E(xc)   XCENC  =       128.31008765
  PAW double counting   =     20715.60108139   -20711.06623239
  entropy T*S    EENTRO =        -0.00000000
  eigenvalues    EBANDS =      -516.23376109
  atomic energy  EATOM  =      2048.72835245
  ---------------------------------------------------
  free energy    TOTEN  =       -52.51518580 eV

  energy without entropy =      -52.51518580  energy(sigma->0) =      -52.51518580


--------------------------------------------------------------------------------------------------------




--------------------------------------- Iteration      1(   9)  ---------------------------------------


    POTLOK:  cpu time      0.3270: real time      0.3270
    SETDIJ:  cpu time      0.0020: real time      0.0020
    TRIAL :  cpu time      1.7882: real time      1.7889
    CORREC:  cpu time      1.7673: real time      1.7675
    CHARGE:  cpu time      0.9329: real time      0.9333
    --------------------------------------------
      LOOP:  cpu time      4.8344: real time      4.8491

 eigenvalue-minimisations  :     0
 total energy-change (2. order) :-0.2689748E+00  (-0.1097541E+00)
 number of electron      34.0000000 magnetization 
 augmentation part        0.1681601 magnetization 

 Free energy of the ion-electron system (eV)
  ---------------------------------------------------
  alpha Z        PSCENC =         0.40154822
  Ewald energy   TEWEN  =      2257.36198512
  -Hartree energ DENC   =     -3976.83824409
  -exchange      EXHF   =         0.00000000
  -V(xc)+E(xc)   XCENC  =       128.19819333
  PAW double counting   =     21050.25776703   -21045.69060098
  entropy T*S    EENTRO =        -0.00000000
  eigenvalues    EBANDS =      -515.20316167
  atomic energy  EATOM  =      2048.72835245
  ---------------------------------------------------
  free energy    TOTEN  =       -52.78416057 eV

  energy without entropy =      -52.78416057  energy(sigma->0) =      -52.78416057


--------------------------------------------------------------------------------------------------------




--------------------------------------- Iteration      1(  10)  ---------------------------------------


    POTLOK:  cpu time      0.3366: real time      0.3369
    SETDIJ:  cpu time      0.0015: real time      0.0015
    TRIAL :  cpu time      1.7875: real time      1.7881
    CORREC:  cpu time      1.7665: real time      1.7674
    CHARGE:  cpu time      0.9535: real time      0.9538
    --------------------------------------------
      LOOP:  cpu time      4.8763: real time      4.8787

 eigenvalue-minimisations  :     0
 total energy-change (2. order) :-0.1090844E+00  (-0.3802430E-01)
 number of electron      34.0000000 magnetization 
 augmentation part        0.1694107 magnetization 

 Free energy of the ion-electron system (eV)
  ---------------------------------------------------
  alpha Z        PSCENC =         0.40154822
  Ewald energy   TEWEN  =      2257.36198512
  -Hartree energ DENC   =     -3971.68528907
  -exchange      EXHF   =         0.00000000
  -V(xc)+E(xc)   XCENC  =       127.99852585
  PAW double counting   =     20665.21331379   -20660.66361371
  entropy T*S    EENTRO =        -0.00000000
  eigenvalues    EBANDS =      -520.24806761
  atomic energy  EATOM  =      2048.72835245
  ---------------------------------------------------
  free energy    TOTEN  =       -52.89324496 eV

  energy without entropy =      -52.89324496  energy(sigma->0) =      -52.89324496


--------------------------------------------------------------------------------------------------------




--------------------------------------- Iteration      1(  11)  ---------------------------------------


    POTLOK:  cpu time      0.3300: real time      0.3304
    SETDIJ:  cpu time      0.0016: real time      0.0016
    TRIAL :  cpu time      1.7948: real time      1.7953
    CORREC:  cpu time      1.7647: real time      1.7653
    CHARGE:  cpu time      0.9362: real time      0.9366
    --------------------------------------------
      LOOP:  cpu time      4.8400: real time      4.8619

 eigenvalue-minimisations  :     0
 total energy-change (2. order) :-0.3796257E-01  (-0.1182224E-01)
 number of electron      34.0000000 magnetization 
 augmentation part        0.1700744 magnetization 

 Free energy of the ion-electron system (eV)
  ---------------------------------------------------
  alpha Z        PSCENC =         0.40154822
  Ewald energy   TEWEN  =      2257.36198512
  -Hartree energ DENC   =     -3968.64977696
  -exchange      EXHF   =         0.00000000
  -V(xc)+E(xc)   XCENC  =       127.91181429
  PAW double counting   =     20225.68283576   -20221.15080714
  entropy T*S    EENTRO =        -0.00000000
  eigenvalues    EBANDS =      -523.21715926
  atomic energy  EATOM  =      2048.72835245
  ---------------------------------------------------
  free energy    TOTEN  =       -52.93120752 eV

  energy without entropy =      -52.93120752  energy(sigma->0) =      -52.93120752


--------------------------------------------------------------------------------------------------------




--------------------------------------- Iteration      1(  12)  ---------------------------------------


    POTLOK:  cpu time      0.3272: real time      0.3272
    SETDIJ:  cpu time      0.0016: real time      0.0016
    TRIAL :  cpu time      1.7858: real time      1.7869
    CORREC:  cpu time      1.7682: real time      1.7691
    CHARGE:  cpu time      0.9314: real time      0.9317
    --------------------------------------------
      LOOP:  cpu time      4.8278: real time      4.8465

 eigenvalue-minimisations  :     0
 total energy-change (2. order) :-0.1181088E-01  (-0.3254541E-02)
 number of electron      34.0000000 magnetization 
 augmentation part        0.1697818 magnetization 

 Free energy of the ion-electron system (eV)
  ---------------------------------------------------
  alpha Z        PSCENC =         0.40154822
  Ewald energy   TEWEN  =      2257.36198512
  -Hartree energ DENC   =     -3967.61608759
  -exchange      EXHF   =         0.00000000
  -V(xc)+E(xc)   XCENC  =       127.88285969
  PAW double counting   =     20106.67614978   -20102.15197986
  entropy T*S    EENTRO =        -0.00000000
  eigenvalues    EBANDS =      -524.22584623
  atomic energy  EATOM  =      2048.72835245
  ---------------------------------------------------
  free energy    TOTEN  =       -52.94301841 eV

  energy without entropy =      -52.94301841  energy(sigma->0) =      -52.94301841


--------------------------------------------------------------------------------------------------------




--------------------------------------- Iteration      1(  13)  ---------------------------------------


    POTLOK:  cpu time      0.3252: real time      0.3252
    SETDIJ:  cpu time      0.0016: real time      0.0016
    TRIAL :  cpu time      1.7864: real time      1.7875
    CORREC:  cpu time      1.7502: real time      1.7509
    CHARGE:  cpu time      0.9455: real time      0.9458
    --------------------------------------------
      LOOP:  cpu time      4.8224: real time      4.8409

 eigenvalue-minimisations  :     0
 total energy-change (2. order) :-0.3251913E-02  (-0.8278062E-03)
 number of electron      34.0000000 magnetization 
 augmentation part        0.1694074 magnetization 

 Free energy of the ion-electron system (eV)
  ---------------------------------------------------
  alpha Z        PSCENC =         0.40154822
  Ewald energy   TEWEN  =      2257.36198512
  -Hartree energ DENC   =     -3966.95845050
  -exchange      EXHF   =         0.00000000
  -V(xc)+E(xc)   XCENC  =       127.86152984
  PAW double counting   =     20129.79382138   -20125.26711424
  entropy T*S    EENTRO =        -0.00000000
  eigenvalues    EBANDS =      -524.86794260
  atomic energy  EATOM  =      2048.72835245
  ---------------------------------------------------
  free energy    TOTEN  =       -52.94627032 eV

  energy without entropy =      -52.94627032  energy(sigma->0) =      -52.94627032


--------------------------------------------------------------------------------------------------------




--------------------------------------- Iteration      1(  14)  ---------------------------------------


    POTLOK:  cpu time      0.3247: real time      0.3248
    SETDIJ:  cpu time      0.0015: real time      0.0015
    TRIAL :  cpu time      1.7888: real time      1.7897
    CORREC:  cpu time      1.7533: real time      1.7542
    CHARGE:  cpu time      0.9352: real time      0.9356
    --------------------------------------------
      LOOP:  cpu time      4.8186: real time      4.8361

 eigenvalue-minimisations  :     0
 total energy-change (2. order) :-0.8267510E-03  (-0.2289971E-03)
 number of electron      34.0000000 magnetization 
 augmentation part        0.1692340 magnetization 

 Free energy of the ion-electron system (eV)
  ---------------------------------------------------
  alpha Z        PSCENC =         0.40154822
  Ewald energy   TEWEN  =      2257.36198512
  -Hartree energ DENC   =     -3966.79780868
  -exchange      EXHF   =         0.00000000
  -V(xc)+E(xc)   XCENC  =       127.85819873
  PAW double counting   =     20158.16869124   -20153.63989651
  entropy T*S    EENTRO =        -0.00000000
  eigenvalues    EBANDS =      -525.02816764
  atomic energy  EATOM  =      2048.72835245
  ---------------------------------------------------
  free energy    TOTEN  =       -52.94709707 eV

  energy without entropy =      -52.94709707  energy(sigma->0) =      -52.94709707


--------------------------------------------------------------------------------------------------------




--------------------------------------- Iteration      1(  15)  ---------------------------------------


    POTLOK:  cpu time      0.3272: real time      0.3272
    SETDIJ:  cpu time      0.0022: real time      0.0022
    TRIAL :  cpu time      1.7859: real time      1.7869
    CORREC:  cpu time      1.7627: real time      1.7633
    CHARGE:  cpu time      0.9411: real time      0.9412
    --------------------------------------------
      LOOP:  cpu time      4.8494: real time      4.8512

 eigenvalue-minimisations  :     0
 total energy-change (2. order) :-0.2283137E-03  (-0.7119924E-04)
 number of electron      34.0000000 magnetization 
 augmentation part        0.1691788 magnetization 

 Free energy of the ion-electron system (eV)
  ---------------------------------------------------
  alpha Z        PSCENC =         0.40154822
  Ewald energy   TEWEN  =      2257.36198512
  -Hartree energ DENC   =     -3966.90006222
  -exchange      EXHF   =         0.00000000
  -V(xc)+E(xc)   XCENC  =       127.86298751
  PAW double counting   =     20167.19131242   -20162.66222438
  entropy T*S    EENTRO =        -0.00000000
  eigenvalues    EBANDS =      -524.93122452
  atomic energy  EATOM  =      2048.72835245
  ---------------------------------------------------
  free energy    TOTEN  =       -52.94732538 eV

  energy without entropy =      -52.94732538  energy(sigma->0) =      -52.94732538


--------------------------------------------------------------------------------------------------------




--------------------------------------- Iteration      1(  16)  ---------------------------------------


    POTLOK:  cpu time      0.3196: real time      0.3199
    SETDIJ:  cpu time      0.0016: real time      0.0016
    TRIAL :  cpu time      1.7998: real time      1.8003
    CORREC:  cpu time      1.7607: real time      1.7610
    CHARGE:  cpu time      0.9514: real time      0.9518
    --------------------------------------------
      LOOP:  cpu time      4.8463: real time      4.8676

 eigenvalue-minimisations  :     0
 total energy-change (2. order) :-0.7109659E-04  (-0.2386941E-04)
 number of electron      34.0000000 magnetization 
 augmentation part        0.1692091 magnetization 

 Free energy of the ion-electron system (eV)
  ---------------------------------------------------
  alpha Z        PSCENC =         0.40154822
  Ewald energy   TEWEN  =      2257.36198512
  -Hartree energ DENC   =     -3966.92250002
  -exchange      EXHF   =         0.00000000
  -V(xc)+E(xc)   XCENC  =       127.86312228
  PAW double counting   =     20166.12625057   -20161.59685296
  entropy T*S    EENTRO =        -0.00000000
  eigenvalues    EBANDS =      -524.90930214
  atomic energy  EATOM  =      2048.72835245
  ---------------------------------------------------
  free energy    TOTEN  =       -52.94739648 eV

  energy without entropy =      -52.94739648  energy(sigma->0) =      -52.94739648


--------------------------------------------------------------------------------------------------------




--------------------------------------- Iteration      1(  17)  ---------------------------------------


    POTLOK:  cpu time      0.3185: real time      0.3190
    SETDIJ:  cpu time      0.0016: real time      0.0016
    TRIAL :  cpu time      1.7862: real time      1.7870
    CORREC:  cpu time      1.7575: real time      1.7584
    CHARGE:  cpu time      0.9324: real time      0.9327
    --------------------------------------------
      LOOP:  cpu time      4.8090: real time      4.8290

 eigenvalue-minimisations  :     0
 total energy-change (2. order) :-0.2393705E-04  (-0.7788710E-05)
 number of electron      34.0000000 magnetization 
 augmentation part        0.1692293 magnetization 

 Free energy of the ion-electron system (eV)
  ---------------------------------------------------
  alpha Z        PSCENC =         0.40154822
  Ewald energy   TEWEN  =      2257.36198512
  -Hartree energ DENC   =     -3966.96361460
  -exchange      EXHF   =         0.00000000
  -V(xc)+E(xc)   XCENC  =       127.86474764
  PAW double counting   =     20161.01272295   -20156.48363765
  entropy T*S    EENTRO =        -0.00000000
  eigenvalues    EBANDS =      -524.86952456
  atomic energy  EATOM  =      2048.72835245
  ---------------------------------------------------
  free energy    TOTEN  =       -52.94742042 eV

  energy without entropy =      -52.94742042  energy(sigma->0) =      -52.94742042


--------------------------------------------------------------------------------------------------------




--------------------------------------- Iteration      1(  18)  ---------------------------------------


    POTLOK:  cpu time      0.3241: real time      0.3241
    SETDIJ:  cpu time      0.0015: real time      0.0015
    TRIAL :  cpu time      1.7844: real time      1.7855
    CORREC:  cpu time      1.7554: real time      1.7559
    CHARGE:  cpu time      0.9411: real time      0.9414
    --------------------------------------------
      LOOP:  cpu time      4.8368: real time      4.8389

 eigenvalue-minimisations  :     0
 total energy-change (2. order) :-0.7825267E-05  (-0.2559019E-05)
 number of electron      34.0000000 magnetization 
 augmentation part        0.1692217 magnetization 

 Free energy of the ion-electron system (eV)
  ---------------------------------------------------
  alpha Z        PSCENC =         0.40154822
  Ewald energy   TEWEN  =      2257.36198512
  -Hartree energ DENC   =     -3966.99309815
  -exchange      EXHF   =         0.00000000
  -V(xc)+E(xc)   XCENC  =       127.86588259
  PAW double counting   =     20159.58706618   -20155.05814239
  entropy T*S    EENTRO =        -0.00000000
  eigenvalues    EBANDS =      -524.84102227
  atomic energy  EATOM  =      2048.72835245
  ---------------------------------------------------
  free energy    TOTEN  =       -52.94742824 eV

  energy without entropy =      -52.94742824  energy(sigma->0) =      -52.94742824


--------------------------------------------------------------------------------------------------------




--------------------------------------- Iteration      1(  19)  ---------------------------------------


    POTLOK:  cpu time      0.3272: real time      0.3272
    SETDIJ:  cpu time      0.0016: real time      0.0016
    TRIAL :  cpu time      1.7896: real time      1.7910
    CORREC:  cpu time      1.7639: real time      1.7647
    CHARGE:  cpu time      0.9271: real time      0.9273
    --------------------------------------------
      LOOP:  cpu time      4.8239: real time      4.8426

 eigenvalue-minimisations  :     0
 total energy-change (2. order) :-0.2553443E-05  (-0.9588296E-06)
 number of electron      34.0000000 magnetization 
 augmentation part        0.1692171 magnetization 

 Free energy of the ion-electron system (eV)
  ---------------------------------------------------
  alpha Z        PSCENC =         0.40154822
  Ewald energy   TEWEN  =      2257.36198512
  -Hartree energ DENC   =     -3966.99735251
  -exchange      EXHF   =         0.00000000
  -V(xc)+E(xc)   XCENC  =       127.86589409
  PAW double counting   =     20161.35655830   -20156.82751596
  entropy T*S    EENTRO =        -0.00000000
  eigenvalues    EBANDS =      -524.83690051
  atomic energy  EATOM  =      2048.72835245
  ---------------------------------------------------
  free energy    TOTEN  =       -52.94743080 eV

  energy without entropy =      -52.94743080  energy(sigma->0) =      -52.94743080


--------------------------------------------------------------------------------------------------------




--------------------------------------- Iteration      1(  20)  ---------------------------------------


    POTLOK:  cpu time      0.3214: real time      0.3214
    SETDIJ:  cpu time      0.0017: real time      0.0017
    TRIAL :  cpu time      1.7839: real time      1.7850
    CORREC:  cpu time      1.7601: real time      1.7608
    CHARGE:  cpu time      0.9393: real time      0.9395
    --------------------------------------------
      LOOP:  cpu time      4.8198: real time      4.8385

 eigenvalue-minimisations  :     0
 total energy-change (2. order) :-0.9158503E-06  (-0.3731876E-06)
 number of electron      34.0000000 magnetization 
 augmentation part        0.1692114 magnetization 

 Free energy of the ion-electron system (eV)
  ---------------------------------------------------
  alpha Z        PSCENC =         0.40154822
  Ewald energy   TEWEN  =      2257.36198512
  -Hartree energ DENC   =     -3967.00394674
  -exchange      EXHF   =         0.00000000
  -V(xc)+E(xc)   XCENC  =       127.86620629
  PAW double counting   =     20163.31024883   -20158.78117454
  entropy T*S    EENTRO =        -0.00000000
  eigenvalues    EBANDS =      -524.83065135
  atomic energy  EATOM  =      2048.72835245
  ---------------------------------------------------
  free energy    TOTEN  =       -52.94743171 eV

  energy without entropy =      -52.94743171  energy(sigma->0) =      -52.94743171


--------------------------------------------------------------------------------------------------------




--------------------------------------- Iteration      1(  21)  ---------------------------------------


    POTLOK:  cpu time      0.3200: real time      0.3200
    SETDIJ:  cpu time      0.0016: real time      0.0016
    TRIAL :  cpu time      1.7852: real time      1.7867
    CORREC:  cpu time      1.7634: real time      1.7640
    CHARGE:  cpu time      0.9266: real time      0.9266
    --------------------------------------------
      LOOP:  cpu time      4.8266: real time      4.8288

 eigenvalue-minimisations  :     0
 total energy-change (2. order) :-0.3436908E-06  (-0.1583317E-06)
 number of electron      34.0000000 magnetization 
 augmentation part        0.1692118 magnetization 

 Free energy of the ion-electron system (eV)
  ---------------------------------------------------
  alpha Z        PSCENC =         0.40154822
  Ewald energy   TEWEN  =      2257.36198512
  -Hartree energ DENC   =     -3967.00021229
  -exchange      EXHF   =         0.00000000
  -V(xc)+E(xc)   XCENC  =       127.86602131
  PAW double counting   =     20164.48647063   -20159.95733694
  entropy T*S    EENTRO =        -0.00000000
  eigenvalues    EBANDS =      -524.83426057
  atomic energy  EATOM  =      2048.72835245
  ---------------------------------------------------
  free energy    TOTEN  =       -52.94743206 eV

  energy without entropy =      -52.94743206  energy(sigma->0) =      -52.94743206


--------------------------------------------------------------------------------------------------------




--------------------------------------- Iteration      1(  22)  ---------------------------------------


    POTLOK:  cpu time      0.3190: real time      0.3190
    SETDIJ:  cpu time      0.0016: real time      0.0016
    TRIAL :  cpu time      1.7918: real time      1.7927
    CORREC:  cpu time      1.7619: real time      1.7622
    CHARGE:  cpu time      0.9279: real time      0.9283
    --------------------------------------------
      LOOP:  cpu time      4.8170: real time      4.8336

 eigenvalue-minimisations  :     0
 total energy-change (2. order) :-0.1337139E-06  (-0.6828106E-07)
 number of electron      34.0000000 magnetization 
 augmentation part        0.1692117 magnetization 

 Free energy of the ion-electron system (eV)
  ---------------------------------------------------
  alpha Z        PSCENC =         0.40154822
  Ewald energy   TEWEN  =      2257.36198512
  -Hartree energ DENC   =     -3966.99888720
  -exchange      EXHF   =         0.00000000
  -V(xc)+E(xc)   XCENC  =       127.86597914
  PAW double counting   =     20164.44994991   -20159.92082995
  entropy T*S    EENTRO =        -0.00000000
  eigenvalues    EBANDS =      -524.83552988
  atomic energy  EATOM  =      2048.72835245
  ---------------------------------------------------
  free energy    TOTEN  =       -52.94743219 eV

  energy without entropy =      -52.94743219  energy(sigma->0) =      -52.94743219


--------------------------------------------------------------------------------------------------------




--------------------------------------- Iteration      1(  23)  ---------------------------------------


    POTLOK:  cpu time      0.3198: real time      0.3201
    SETDIJ:  cpu time      0.0016: real time      0.0016
    TRIAL :  cpu time      1.7920: real time      1.7927
    CORREC:  cpu time      7.0237: real time      7.0270
    CHARGE:  cpu time      0.9351: real time      0.9351
    --------------------------------------------
      LOOP:  cpu time     10.1025: real time     10.1072

 eigenvalue-minimisations  :     0
 total energy-change (2. order) :-0.4178946E-07  (-0.1614682E-06)
 number of electron      34.0000000 magnetization 
 augmentation part        0.1692073 magnetization 

 Free energy of the ion-electron system (eV)
  ---------------------------------------------------
  alpha Z        PSCENC =         0.40154822
  Ewald energy   TEWEN  =      2257.36198512
  -Hartree energ DENC   =     -3966.99677508
  -exchange      EXHF   =         0.00000000
  -V(xc)+E(xc)   XCENC  =       127.86590278
  PAW double counting   =     20163.92241270   -20159.39330233
  entropy T*S    EENTRO =        -0.00000000
  eigenvalues    EBANDS =      -524.83755610
  atomic energy  EATOM  =      2048.72835245
  ---------------------------------------------------
  free energy    TOTEN  =       -52.94743223 eV

  energy without entropy =      -52.94743223  energy(sigma->0) =      -52.94743223


--------------------------------------------------------------------------------------------------------




--------------------------------------- Iteration      1(  24)  ---------------------------------------


    POTLOK:  cpu time      0.3240: real time      0.3244
    SETDIJ:  cpu time      0.0016: real time      0.0016
    TRIAL :  cpu time      1.7874: real time      1.7882
    CORREC:  cpu time      1.7520: real time      1.7524
    CHARGE:  cpu time      0.9431: real time      0.9434
    --------------------------------------------
      LOOP:  cpu time      4.8320: real time      4.8525

 eigenvalue-minimisations  :     0
 total energy-change (2. order) : 0.2992419E-06  (-0.2801653E-06)
 number of electron      34.0000000 magnetization 
 augmentation part        0.1692071 magnetization 

 Free energy of the ion-electron system (eV)
  ---------------------------------------------------
  alpha Z        PSCENC =         0.40154822
  Ewald energy   TEWEN  =      2257.36198512
  -Hartree energ DENC   =     -3966.99370125
  -exchange      EXHF   =         0.00000000
  -V(xc)+E(xc)   XCENC  =       127.86577265
  PAW double counting   =     20162.72534782   -20158.19622594
  entropy T*S    EENTRO =        -0.00000000
  eigenvalues    EBANDS =      -524.84051101
  atomic energy  EATOM  =      2048.72835245
  ---------------------------------------------------
  free energy    TOTEN  =       -52.94743193 eV

  energy without entropy =      -52.94743193  energy(sigma->0) =      -52.94743193


--------------------------------------------------------------------------------------------------------




--------------------------------------- Iteration      1(  25)  ---------------------------------------


    POTLOK:  cpu time      0.3196: real time      0.3199
    SETDIJ:  cpu time      0.0016: real time      0.0016
    TRIAL :  cpu time      1.7952: real time      1.7960
    CORREC:  cpu time      1.7562: real time      1.7571
    CHARGE:  cpu time      0.9304: real time      0.9308
    --------------------------------------------
      LOOP:  cpu time      4.8161: real time      4.8351

 eigenvalue-minimisations  :     0
 total energy-change (2. order) :-0.2805318E-06  (-0.5268978E-07)
 number of electron      34.0000000 magnetization 
 augmentation part        0.1692068 magnetization 

 Free energy of the ion-electron system (eV)
  ---------------------------------------------------
  alpha Z        PSCENC =         0.40154822
  Ewald energy   TEWEN  =      2257.36198512
  -Hartree energ DENC   =     -3966.99552391
  -exchange      EXHF   =         0.00000000
  -V(xc)+E(xc)   XCENC  =       127.86585836
  PAW double counting   =     20163.01366580   -20158.48454826
  entropy T*S    EENTRO =        -0.00000000
  eigenvalues    EBANDS =      -524.83877000
  atomic energy  EATOM  =      2048.72835245
  ---------------------------------------------------
  free energy    TOTEN  =       -52.94743221 eV

  energy without entropy =      -52.94743221  energy(sigma->0) =      -52.94743221


--------------------------------------------------------------------------------------------------------




--------------------------------------- Iteration      1(  26)  ---------------------------------------


    POTLOK:  cpu time      0.3208: real time      0.3208
    SETDIJ:  cpu time      0.0016: real time      0.0016
    TRIAL :  cpu time      1.7942: real time      1.7951
    CORREC:  cpu time      1.7466: real time      1.7473
    EDDIAG:  cpu time      0.7627: real time      0.7637
    CHARGE:  cpu time      0.9354: real time      0.9357
    --------------------------------------------
      LOOP:  cpu time      5.5918: real time      5.5949

 eigenvalue-minimisations  :     0
 total energy-change (2. order) :-0.4749381E-07  (-0.1971156E-07)
 number of electron      34.0000000 magnetization 
 augmentation part        0.1692067 magnetization 

 Free energy of the ion-electron system (eV)
  ---------------------------------------------------
  alpha Z        PSCENC =         0.40154822
  Ewald energy   TEWEN  =      2257.36198512
  -Hartree energ DENC   =     -3966.99629100
  -exchange      EXHF   =         0.00000000
  -V(xc)+E(xc)   XCENC  =       127.86588778
  PAW double counting   =     20163.45283371   -20158.92370733
  entropy T*S    EENTRO =        -0.00000000
  eigenvalues    EBANDS =      -524.83804122
  atomic energy  EATOM  =      2048.72835245
  ---------------------------------------------------
  free energy    TOTEN  =       -52.94743226 eV

  energy without entropy =      -52.94743226  energy(sigma->0) =      -52.94743226


--------------------------------------------------------------------------------------------------------


  average scaling for gradient   1.3769


 average (electrostatic) potential at core
  the test charge radii are     0.5770  0.4325  0.5955
  (the norm of the test charge is              1.0000)
       1 -90.3671       2 -90.3666       3 -49.0252       4 -49.0265       5-120.4242
       6-120.4242       7-121.8102       8-121.8093



 E-fermi :  -6.9563     XC(G=0):  -0.1722     alpha+bet : -0.0741

 Fermi energy:        -6.9562920326

 k-point     1 :       0.0000    0.0000    0.0000
  band No.  band energies     occupation 
      1     -29.1208      2.00000
      2     -28.3243      2.00000
      3     -27.0059      2.00000
      4     -26.4189      2.00000
      5     -17.4579      2.00000
      6     -15.9581      2.00000
      7     -15.8215      2.00000
      8     -12.6365      2.00000
      9     -12.2586      2.00000
     10     -11.6693      2.00000
     11     -11.5345      2.00000
     12     -11.1267      2.00000
     13      -9.7277      2.00000
     14      -8.9281      2.00000
     15      -8.7820      2.00000
     16      -8.6178      2.00000
     17      -7.0301      2.00000
     18      -3.4927      0.00000
     19      -0.9711      0.00000
     20      -0.2120      0.00000
     21       0.0833      0.00000
     22       0.1023      0.00000
     23       0.2458      0.00000
     24       0.2956      0.00000
     25       0.4025      0.00000
     26       0.4257      0.00000
     27       0.5058      0.00000
     28       0.5562      0.00000
     29       0.5860      0.00000
     30       0.6181      0.00000
     31       0.6932      0.00000
     32       0.7337      0.00000
     33       0.7688      0.00000
     34       0.7767      0.00000
     35       0.7951      0.00000
     36       0.7981      0.00000
     37       0.8070      0.00000
     38       0.8098      0.00000
     39       0.9675      0.00000
     40       1.0014      0.00000
     41       1.0536      0.00000
     42       1.0633      0.00000
     43       1.0811      0.00000
     44       1.1031      0.00000
     45       1.1336      0.00000
     46       1.1642      0.00000
     47       1.2441      0.00000
     48       1.2881      0.00000
     49       1.3915      0.00000
     50       1.4043      0.00000
     51       1.4269      0.00000
     52       1.4345      0.00000
     53       1.5557      0.00000
     54       1.6163      0.00000
     55       1.6703      0.00000
     56       1.6848      0.00000
     57       1.6858      0.00000
     58       1.7220      0.00000
     59       1.7544      0.00000
     60       1.7738      0.00000
     61       1.8107      0.00000
     62       1.8391      0.00000
     63       1.8578      0.00000
     64       1.8663      0.00000
     65       1.8756      0.00000
     66       1.8994      0.00000
     67       1.9060      0.00000
     68       1.9190      0.00000
     69       1.9260      0.00000
     70       1.9289      0.00000
     71       1.9295      0.00000
     72       1.9351      0.00000
     73       1.9362      0.00000
     74       1.9406      0.00000
     75       1.9410      0.00000
     76       1.9420      0.00000
     77       2.0646      0.00000
     78       2.1018      0.00000
     79       2.1312      0.00000
     80       2.1498      0.00000
     81       2.1507      0.00000
     82       2.1649      0.00000
     83       2.1810      0.00000
     84       2.2052      0.00000
     85       2.2313      0.00000
     86       2.2476      0.00000
     87       2.2486      0.00000
     88       2.2592      0.00000
     89       2.2678      0.00000
     90       2.2743      0.00000
     91       2.2835      0.00000
     92       2.2905      0.00000
     93       2.2912      0.00000
     94       2.2937      0.00000
     95       2.2988      0.00000
     96       2.3017      0.00000
     97       2.3068      0.00000
     98       2.3101      0.00000
     99       2.3108      0.00000
    100       2.3141      0.00000
    101       2.5742      0.00000
    102       2.6210      0.00000
    103       2.8554      0.00000
    104       2.8564      0.00000
    105       2.8875      0.00000
    106       2.8935      0.00000
    107       2.9242      0.00000
    108       2.9486      0.00000
    109       2.9493      0.00000
    110       2.9570      0.00000
    111       2.9646      0.00000
    112       2.9822      0.00000
    113       3.0750      0.00000
    114       3.1040      0.00000
    115       3.1589      0.00000
    116       3.1753      0.00000
    117       3.1896      0.00000
    118       3.2208      0.00000
    119       3.2294      0.00000
    120       3.2440      0.00000
    121       3.2452      0.00000
    122       3.2710      0.00000
    123       3.2847      0.00000
    124       3.2979      0.00000
    125       3.3291      0.00000
    126       3.3493      0.00000
    127       3.3684      0.00000
    128       3.3737      0.00000
    129       3.3879      0.00000
    130       3.3955      0.00000
    131       3.3992      0.00000
    132       3.4054      0.00000
    133       3.4073      0.00000
    134       3.4121      0.00000
    135       3.4212      0.00000
    136       3.4246      0.00000
    137       3.4272      0.00000
    138       3.4294      0.00000
    139       3.4331      0.00000
    140       3.4356      0.00000
    141       3.4376      0.00000
    142       3.4397      0.00000
    143       3.5432      0.00000
    144       3.5637      0.00000
    145       3.5963      0.00000
    146       3.6066      0.00000
    147       3.6147      0.00000
    148       3.6731      0.00000
    149       3.6825      0.00000
    150       3.6945      0.00000
    151       3.6992      0.00000
    152       3.7273      0.00000
    153       3.7310      0.00000
    154       3.7373      0.00000
    155       3.7409      0.00000
    156       3.7542      0.00000
    157       3.7549      0.00000
    158       3.7630      0.00000
    159       3.7749      0.00000
    160       3.7785      0.00000
    161       3.8005      0.00000
    162       3.8055      0.00000
    163       3.8072      0.00000
    164       3.8089      0.00000
    165       3.8133      0.00000
    166       3.8159      0.00000
    167       3.9031      0.00000
    168       3.9125      0.00000
    169       3.9692      0.00000
    170       4.0571      0.00000
    171       4.0582      0.00000
    172       4.0670      0.00000
    173       4.0742      0.00000
    174       4.0918      0.00000
    175       4.0955      0.00000
    176       4.0972      0.00000
    177       4.1040      0.00000
    178       4.1095      0.00000
    179       4.1146      0.00000
    180       4.1158      0.00000
    181       4.1237      0.00000
    182       4.1243      0.00000
    183       4.1353      0.00000
    184       4.1363      0.00000
    185       4.1404      0.00000
    186       4.1546      0.00000
    187       4.1612      0.00000
    188       4.1688      0.00000
    189       4.1702      0.00000
    190       4.1720      0.00000
    191       4.2636      0.00000
    192       4.2977      0.00000
    193       4.3439      0.00000
    194       4.4261      0.00000
    195       4.4540      0.00000
    196       4.4704      0.00000
    197       4.4721      0.00000
    198       4.4943      0.00000
    199       4.5109      0.00000
    200       4.5520      0.00000
    201       4.5617      0.00000
    202       4.6252      0.00000
    203       4.6685      0.00000
    204       4.6999      0.00000
    205       4.7155      0.00000
    206       4.7207      0.00000
    207       4.7597      0.00000
    208       4.7868      0.00000
    209       4.8163      0.00000
    210       4.8334      0.00000
    211       4.8370      0.00000
    212       4.8583      0.00000
    213       4.8765      0.00000
    214       4.8861      0.00000
    215       4.8879      0.00000
    216       4.9009      0.00000
    217       4.9070      0.00000
    218       4.9143      0.00000
    219       4.9180      0.00000
    220       4.9199      0.00000
    221       4.9224      0.00000
    222       4.9319      0.00000
    223       4.9577      0.00000
    224       4.9824      0.00000
    225       5.0290      0.00000
    226       5.0741      0.00000
    227       5.0949      0.00000
    228       5.1326      0.00000
    229       5.1329      0.00000
    230       5.1391      0.00000
    231       5.1610      0.00000
    232       5.1768      0.00000
    233       5.1786      0.00000
    234       5.1834      0.00000
    235       5.1945      0.00000
    236       5.1949      0.00000
    237       5.2035      0.00000
    238       5.2059      0.00000
    239       5.2110      0.00000
    240       5.2220      0.00000
    241       5.2271      0.00000
    242       5.2301      0.00000
    243       5.2379      0.00000
    244       5.2409      0.00000
    245       5.2473      0.00000
    246       5.2654      0.00000
    247       5.2767      0.00000
    248       5.2863      0.00000
    249       5.2870      0.00000
    250       5.2906      0.00000
    251       5.2943      0.00000
    252       5.3017      0.00000
    253       5.3023      0.00000
    254       5.3283      0.00000
    255       5.4608      0.00000
    256       5.6252      0.00000


--------------------------------------------------------------------------------------------------------


 soft charge-density along one line, spin component           1
         0         1         2         3         4         5         6         7         8         9
 total charge-density along one line

 pseudopotential strength for first ion, spin component:           1
 12.874  21.668  -0.011  -0.005   0.001  -0.019  -0.008   0.001
 21.668  36.469  -0.018  -0.008   0.001  -0.031  -0.014   0.001
 -0.011  -0.018  -3.243   0.001  -0.000  -5.819   0.001  -0.001
 -0.005  -0.008   0.001  -3.243  -0.001   0.001  -5.818  -0.001
  0.001   0.001  -0.000  -0.001  -3.243  -0.001  -0.001  -5.819
 -0.019  -0.031  -5.819   0.001  -0.001 -10.417   0.003  -0.002
 -0.008  -0.014   0.001  -5.818  -0.001   0.003 -10.415  -0.002
  0.001   0.001  -0.001  -0.001  -5.819  -0.002  -0.002 -10.417
 total augmentation occupancy for first ion, spin component:           1
  8.728  -3.338   0.027  -1.609   1.519   0.004   0.740  -0.692
 -3.338   1.399   0.061   0.803  -0.730  -0.017  -0.354   0.325
  0.027   0.061   7.406  -0.457   2.037  -2.683   0.233  -0.903
 -1.609   0.803  -0.457   5.678  -2.658   0.232  -1.895   1.098
  1.519  -0.730   2.037  -2.658   6.271  -0.902   1.098  -2.180
  0.004  -0.017  -2.683   0.232  -0.902   1.005  -0.111   0.392
  0.740  -0.354   0.233  -1.895   1.098  -0.111   0.666  -0.458
 -0.692   0.325  -0.903   1.098  -2.180   0.392  -0.458   0.796


------------------------ aborting loop because EDIFF is reached ----------------------------------------


    FORLOC:  cpu time      0.0107: real time      0.0107
    FORNL :  cpu time      0.1786: real time      0.1790
    FORCOR:  cpu time      0.1878: real time      0.1879
    OFIELD:  cpu time      0.0037: real time      0.0037

 ---------------------------------------------------------------------------------------------

         DFTD3 V3.0 Rev 1        
 IVDW         = 11
 DF pbe       
 parameters
 VDW_S6       =    1.0000
 VDW_S8       =    0.7220
 VDW_SR       =    1.2170
 rs18     =    1.0000
 alpha6   =   14.0000
 alpha8   =   16.0000
 k1-k3    =   16.0000    1.3333   -4.0000
 VDW_RADIUS   =   50.2022 A
 VDW_CNRADIUS =   21.1671 A
 Edisp (eV)   -0.05144

 E6    (eV) :    -0.0159
 E8    (eV) :    -0.0356
 % E8        : 69.17
    FORVDW:  cpu time      0.0757: real time      0.0775

 VOLUME and BASIS-vectors are now :
 -----------------------------------------------------------------------------
  energy-cutoff  :     1000.00
  volume of cell :     8000.00
      direct lattice vectors                 reciprocal lattice vectors
    20.000000000  0.000000000  0.000000000     0.050000000  0.000000000  0.000000000
     0.000000000 20.000000000  0.000000000     0.000000000  0.050000000  0.000000000
     0.000000000  0.000000000 20.000000000     0.000000000  0.000000000  0.050000000

  length of vectors
    20.000000000 20.000000000 20.000000000     0.050000000  0.050000000  0.050000000


 FORCES acting on ions:
    Electron-Ion                     Ewald-Force                    Non-Local-Force
 -----------------------------------------------------------------------------------------------
   0.638E+01 0.275E+02 0.366E+01   -.588E+01 -.210E+02 -.165E+01   -.737E+00 -.682E+01 -.189E+01
   -.656E+01 -.274E+02 -.373E+01   0.607E+01 0.209E+02 0.172E+01   0.741E+00 0.682E+01 0.187E+01
   0.714E+02 0.603E+02 -.526E+02   -.771E+02 -.615E+02 0.583E+02   0.572E+01 0.119E+01 -.564E+01
   -.714E+02 -.604E+02 0.526E+02   0.771E+02 0.615E+02 -.583E+02   -.572E+01 -.120E+01 0.564E+01
   -.291E+03 -.101E+03 0.270E+03   0.329E+03 0.122E+03 -.302E+03   -.383E+02 -.209E+02 0.326E+02
   0.291E+03 0.101E+03 -.270E+03   -.329E+03 -.122E+03 0.302E+03   0.383E+02 0.209E+02 -.326E+02
   0.306E+02 0.352E+03 0.105E+03   -.155E+02 -.389E+03 -.136E+03   -.151E+02 0.380E+02 0.310E+02
   -.304E+02 -.352E+03 -.105E+03   0.153E+02 0.390E+03 0.136E+03   0.152E+02 -.380E+02 -.310E+02
 -----------------------------------------------------------------------------------------------
   -.504E-01 0.304E-01 -.122E-01   -.107E-13 0.568E-13 0.000E+00   0.504E-01 -.304E-01 0.122E-01


 POSITION                                       TOTAL-FORCE (eV/Angst)
 -----------------------------------------------------------------------------------
     10.36587      9.59569      9.45312        -0.051767     -0.093174      0.010515
      9.63408     10.40374     10.54674         0.057882      0.097140     -0.020899
      9.27416      8.21411     10.07710        -0.019973      0.042147      0.034049
     10.72505     11.78589      9.92217         0.024400     -0.043933     -0.039414
     11.21197     10.09969      8.74899         0.090214      0.038538     -0.080300
      8.78803      9.90032     11.25101        -0.099579     -0.049544      0.088050
      9.96469      8.32590      9.38345         0.048983     -0.019597     -0.052828
     10.03446     11.67365     10.61543        -0.050160      0.028422      0.060827
 -----------------------------------------------------------------------------------
    total drift:                               -0.000007     -0.000016      0.000005


--------------------------------------------------------------------------------------------------------



  FREE ENERGIE OF THE ION-ELECTRON SYSTEM (eV)
  ---------------------------------------------------
  free  energy   TOTEN  =       -52.99887603 eV

  energy  without entropy=      -52.99887603  energy(sigma->0) =      -52.99887603



--------------------------------------------------------------------------------------------------------


    POTLOK:  cpu time      0.3344: real time      0.3349


--------------------------------------------------------------------------------------------------------


 stress matrix after NEB project (eV)
      0.02000     -0.01747     -0.02814
     -0.01747      0.06110      0.04242
     -0.02814      0.04242      0.04641
  FORCES: max atom, RMS     0.141857    0.100562
  FORCE total and by dimension    0.284433    0.099579
  Stress total and by dimension    0.109904    0.061100
     LOOP+:  cpu time    146.9539: real time    147.3218
    4ORBIT:  cpu time      0.0000: real time      0.0000

 total amount of memory used by VASP MPI-rank0   382402. kBytes
=======================================================================

   base      :      30000. kBytes
   nonl-proj :      45957. kBytes
   fftplans  :     102640. kBytes
   grid      :     196902. kBytes
   one-center:          6. kBytes
   wavefun   :       6897. kBytes

  
  
 General timing and accounting informations for this job:
 ========================================================
  
                  Total CPU time used (sec):      205.482
                            User time (sec):      180.837
                          System time (sec):       24.645
                         Elapsed time (sec):      224.376
  
                   Maximum memory used (kb):      632592.
                   Average memory used (kb):          N/A
  
                          Minor page faults:      1077688
                          Major page faults:         1202
                 Voluntary context switches:        11999
