 vasp.6.4.1 05Apr23 (build Jun  6 2023 14:46:38) gamma-only                      
 executed on        HPECrayEX_GCC date 2024.08.21  23:29:47
 running  512 mpi-ranks, with    1 threads/rank, on    4 nodes
 distrk:  each k-point on  512 cores,    1 groups
 distr:  one band on NCORE=   2 cores,  256 groups


--------------------------------------------------------------------------------------------------------


 INCAR:
   ALGO = Conjugate
   NCORE = 2
   PREC = Accurate
   EDIFF = 1E-7
   ENCUT = 1000
   ISMEAR = 0
   SIGMA = 0.01
   ISIF = 0
   SYMPREC = 1E-7
   GGA = B5
   ALDAX = 1.0
   AGGAX = 1.0
   AGGAC = 1.0
   ALDAC = 0.0
   IVDW = 11
   VDW_S8 = 1.682
   VDW_SR = 1.094
   LWAVE = .FALSE.
   LCHARG = .FALSE.
   LWAVE = .FALSE.
   LCHARG = .FALSE.

 POTCAR:    PAW_PBE C_h 06Feb2004                 
 POTCAR:    PAW_PBE H_h 06Feb2004                 
 POTCAR:    PAW_PBE O_h 06Feb2004                 
 POTCAR:    PAW_PBE C_h 06Feb2004                 
   VRHFIN =C: s2p2                                                                                  
   LEXCH  = PE                                                                                      
   EATOM  =   147.1560 eV,   10.8157 Ry                                                             
                                                                                                    
   TITEL  = PAW_PBE C_h 06Feb2004                                                                   
   LULTRA =        F    use ultrasoft PP ?                                                          
   IUNSCR =        1    unscreen: 0-lin 1-nonlin 2-no                                               
   RPACOR =    0.800    partial core radius                                                         
   POMASS =   12.011; ZVAL   =    4.000    mass and valenz                                          
   RCORE  =    1.100    outmost cutoff radius                                                       
   RWIGS  =    1.630; RWIGS  =    0.863    wigner-seitz radius (au A)                               
   ENMAX  =  700.000; ENMIN  =  500.000 eV                                                          
   ICORE  =        2    local potential                                                             
   LCOR   =        T    correct aug charges                                                         
   LPAW   =        T    paw PP                                                                      
   EAUG   =  946.768                                                                                
   DEXC   =    0.000                                                                                
   RMAX   =    1.128    core radius for proj-oper                                                   
   RAUG   =    1.300    factor for augmentation sphere                                              
   RDEP   =    1.162    radius for radial grids                                                     
   RDEPT  =    1.088    core radius for aug-charge                                                  
                                                                                                    
   Atomic configuration                                                                             
    4 entries                                                                                       
     n  l   j            E        occ.                                                              
     1  0  0.50      -273.3789   2.0000                                                             
     2  0  0.50       -13.7508   2.0000                                                             
     2  1  0.50        -5.2854   2.0000                                                             
     3  2  1.50        -5.4423   0.0000                                                             
   Description                                                                                      
     l       E           TYP  RCUT    TYP  RCUT                                                     
     0    -13.7508458     23  1.100                                                                 
     0     -8.2022199     23  1.100                                                                 
     1     -5.2854383     23  1.100                                                                 
     1      1.1560700     23  1.100                                                                 
     2     -5.4423304      7  1.100                                                                 
  local pseudopotential read in
  partial core-charges read in
  partial kinetic energy density read in
  atomic valenz-charges read in
  non local Contribution for L=           0  read in
    real space projection operators read in
  non local Contribution for L=           0  read in
    real space projection operators read in
  non local Contribution for L=           1  read in
    real space projection operators read in
  non local Contribution for L=           1  read in
    real space projection operators read in
    PAW grid and wavefunctions read in

   number of l-projection  operators is LMAX  =           4
   number of lm-projection operators is LMMAX =           8

 POTCAR:    PAW_PBE H_h 06Feb2004                 
   VRHFIN =H: ultrasoft test                                                                        
   LEXCH  = PE                                                                                      
   EATOM  =    12.4884 eV,    0.9179 Ry                                                             
                                                                                                    
   TITEL  = PAW_PBE H_h 06Feb2004                                                                   
   LULTRA =        F    use ultrasoft PP ?                                                          
   IUNSCR =        0    unscreen: 0-lin 1-nonlin 2-no                                               
   RPACOR =    0.000    partial core radius                                                         
   POMASS =    1.000; ZVAL   =    1.000    mass and valenz                                          
   RCORE  =    0.800    outmost cutoff radius                                                       
   RWIGS  =    0.700; RWIGS  =    0.370    wigner-seitz radius (au A)                               
   ENMAX  =  700.000; ENMIN  =  350.000 eV                                                          
   RCLOC  =    0.701    cutoff for local pot                                                        
   LCOR   =        T    correct aug charges                                                         
   LPAW   =        T    paw PP                                                                      
   EAUG   = 1000.000                                                                                
   RMAX   =    0.819    core radius for proj-oper                                                   
   RAUG   =    1.000    factor for augmentation sphere                                              
   RDEP   =    0.817    radius for radial grids                                                     
   RDEPT  =    0.817    core radius for aug-charge                                                  
                                                                                                    
   Atomic configuration                                                                             
    2 entries                                                                                       
     n  l   j            E        occ.                                                              
     1  0  0.50        -6.4927   1.0000                                                             
     2  1  0.50        -3.4015   0.0000                                                             
   Description                                                                                      
     l       E           TYP  RCUT    TYP  RCUT                                                     
     0     -6.4927493     23  0.800                                                                 
     0      6.8029130     23  0.800                                                                 
     1     -6.8029130     23  0.800                                                                 
  local pseudopotential read in
  atomic valenz-charges read in
  non local Contribution for L=           0  read in
    real space projection operators read in
  non local Contribution for L=           0  read in
    real space projection operators read in
  non local Contribution for L=           1  read in
    real space projection operators read in
    PAW grid and wavefunctions read in

   number of l-projection  operators is LMAX  =           3
   number of lm-projection operators is LMMAX =           5

 POTCAR:    PAW_PBE O_h 06Feb2004                 
   VRHFIN =O: s2p4                                                                                  
   LEXCH  = PE                                                                                      
   EATOM  =   432.3788 eV,   31.7789 Ry                                                             
                                                                                                    
   TITEL  = PAW_PBE O_h 06Feb2004                                                                   
   LULTRA =        F    use ultrasoft PP ?                                                          
   IUNSCR =        1    unscreen: 0-lin 1-nonlin 2-no                                               
   RPACOR =    0.800    partial core radius                                                         
   POMASS =   16.000; ZVAL   =    6.000    mass and valenz                                          
   RCORE  =    1.100    outmost cutoff radius                                                       
   RWIGS  =    1.400; RWIGS  =    0.741    wigner-seitz radius (au A)                               
   ENMAX  =  700.000; ENMIN  =  500.000 eV                                                          
   ICORE  =        2    local potential                                                             
   LCOR   =        T    correct aug charges                                                         
   LPAW   =        T    paw PP                                                                      
   EAUG   =  888.804                                                                                
   DEXC   =    0.000                                                                                
   RMAX   =    1.128    core radius for proj-oper                                                   
   RAUG   =    1.300    factor for augmentation sphere                                              
   RDEP   =    1.125    radius for radial grids                                                     
   RDEPT  =    1.088    core radius for aug-charge                                                  
                                                                                                    
   Atomic configuration                                                                             
    4 entries                                                                                       
     n  l   j            E        occ.                                                              
     1  0  0.50      -514.6923   2.0000                                                             
     2  0  0.50       -23.9615   2.0000                                                             
     2  1  0.50        -9.0305   4.0000                                                             
     3  2  1.50        -9.5241   0.0000                                                             
   Description                                                                                      
     l       E           TYP  RCUT    TYP  RCUT                                                     
     0    -23.9615319     23  1.100                                                                 
     0    -25.3221145     23  1.100                                                                 
     1     -9.0304911     23  1.100                                                                 
     1     -5.4802209     23  1.100                                                                 
     2     -9.5240782      7  1.100                                                                 
  local pseudopotential read in
  partial core-charges read in
  partial kinetic energy density read in
  atomic valenz-charges read in
  non local Contribution for L=           0  read in
    real space projection operators read in
  non local Contribution for L=           0  read in
    real space projection operators read in
  non local Contribution for L=           1  read in
    real space projection operators read in
  non local Contribution for L=           1  read in
    real space projection operators read in
    PAW grid and wavefunctions read in

   number of l-projection  operators is LMAX  =           4
   number of lm-projection operators is LMMAX =           8

 -----------------------------------------------------------------------------
|                                                                             |
|               ----> ADVICE to this user running VASP <----                  |
|                                                                             |
|     You enforced a specific xc type in the INCAR file but a different       |
|     type was found in the POTCAR file.                                      |
|     I HOPE YOU KNOW WHAT YOU ARE DOING!                                     |
|                                                                             |
 -----------------------------------------------------------------------------

  PAW_PBE C_h 06Feb2004                 :
 energy of atom  1       EATOM= -147.1560
 kinetic energy error for atom=    0.0031 (will be added to EATOM!!)
  PAW_PBE H_h 06Feb2004                 :
 energy of atom  2       EATOM=  -12.4884
 kinetic energy error for atom=    0.0006 (will be added to EATOM!!)
  PAW_PBE O_h 06Feb2004                 :
 energy of atom  3       EATOM= -432.3788
 kinetic energy error for atom=    0.0171 (will be added to EATOM!!)


 POSCAR:  C  H  O
  positions in cartesian coordinates
  No initial velocities read in
 exchange correlation table for  LEXCH =       12
   RHO(1)=    0.500       N(1)  =     2000
   RHO(2)=  100.500       N(2)  =     4000

 VTST: version 4.1, (05/19/21)

 CHAIN: initializing optimizer
 
 OPT: Using VASP Dynamics algorithm
 CHAIN: Read ICHAIN            0

 POSCAR:  C  H  O
  positions in cartesian coordinates
  No initial velocities read in



--------------------------------------------------------------------------------------------------------


 ion  position               nearest neighbor table
   1  0.518  0.480  0.473-   5 1.21   7 1.33   2 1.54
   2  0.482  0.520  0.527-   6 1.21   8 1.33   1 1.54
   3  0.464  0.411  0.504-   7 0.99
   4  0.536  0.589  0.496-   8 0.98
   5  0.561  0.505  0.437-   1 1.21
   6  0.439  0.495  0.563-   2 1.21
   7  0.498  0.416  0.469-   3 0.99   1 1.33
   8  0.502  0.584  0.531-   4 0.98   2 1.33

  LATTYP: Found a simple cubic cell.
 ALAT       =    20.0000000000
  
  Lattice vectors:
  
 A1 = (  20.0000000000,   0.0000000000,   0.0000000000)
 A2 = (   0.0000000000,  20.0000000000,   0.0000000000)
 A3 = (   0.0000000000,   0.0000000000,  20.0000000000)


Analysis of symmetry for initial positions (statically):
=====================================================================
 Subroutine PRICEL returns:
 Original cell was already a primitive cell.
 

 Routine SETGRP: Setting up the symmetry group for a 
 simple cubic supercell.


 Subroutine GETGRP returns: Found  1 space group operations
 (whereof  1 operations were pure point group operations)
 out of a pool of 48 trial point group operations.


The static configuration has the point symmetry C_1 .


Analysis of symmetry for dynamics (positions and initial velocities):
=====================================================================
 Subroutine PRICEL returns:
 Original cell was already a primitive cell.
 

 Routine SETGRP: Setting up the symmetry group for a 
 simple cubic supercell.


 Subroutine GETGRP returns: Found  1 space group operations
 (whereof  1 operations were pure point group operations)
 out of a pool of 48 trial point group operations.


The dynamic configuration has the point symmetry C_1 .


 Subroutine INISYM returns: Found  1 space group operations
 (whereof  1 operations are pure point group operations),
 and found     1 'primitive' translations


----------------------------------------------------------------------------------------

                                     Primitive cell                                     

  volume of cell :    8000.0000

  direct lattice vectors                    reciprocal lattice vectors
    20.000000000  0.000000000  0.000000000     0.050000000  0.000000000  0.000000000
     0.000000000 20.000000000  0.000000000     0.000000000  0.050000000  0.000000000
     0.000000000  0.000000000 20.000000000     0.000000000  0.000000000  0.050000000

  length of vectors
    20.000000000 20.000000000 20.000000000     0.050000000  0.050000000  0.050000000

  position of ions in fractional coordinates (direct lattice)
     0.518293500  0.479784500  0.472655750
     0.481704000  0.520187000  0.527336750
     0.463708000  0.410705500  0.503854750
     0.536252500  0.589294500  0.496108750
     0.560598500  0.504984500  0.437449750
     0.439401500  0.495016000  0.562550250
     0.498234500  0.416295000  0.469172750
     0.501723000  0.583682500  0.530771250

  ion indices of the primitive-cell ions
   primitive index   ion index
                 1           1
                 2           2
                 3           3
                 4           4
                 5           5
                 6           6
                 7           7
                 8           8

----------------------------------------------------------------------------------------



 KPOINTS: auto                                    

Automatic generation of k-mesh.
 Grid dimensions read from file:
 generate k-points for:    1    1    1

 Generating k-lattice:

  Cartesian coordinates                     Fractional coordinates (reciprocal lattice)
     0.050000000  0.000000000  0.000000000     1.000000000  0.000000000  0.000000000
     0.000000000  0.050000000  0.000000000     0.000000000  1.000000000  0.000000000
     0.000000000  0.000000000  0.050000000     0.000000000  0.000000000  1.000000000

  Length of vectors
     0.050000000  0.050000000  0.050000000

  Shift w.r.t. Gamma in fractional coordinates (k-lattice)
     0.000000000  0.000000000  0.000000000

 
 Subroutine IBZKPT returns following result:
 ===========================================
 
 Found      1 irreducible k-points:
 
 Following reciprocal coordinates:
            Coordinates               Weight
  0.000000  0.000000  0.000000      1.000000
 
 Following cartesian coordinates:
            Coordinates               Weight
  0.000000  0.000000  0.000000      1.000000
 


--------------------------------------------------------------------------------------------------------




 Dimension of arrays:
   k-points           NKPTS =      1   k-points in BZ     NKDIM =      1   number of bands    NBANDS=    256
   number of dos      NEDOS =    301   number of ions     NIONS =      8
   non local maximal  LDIM  =      4   non local SUM 2l+1 LMDIM =      8
   total plane-waves  NPLWV = ******
   max r-space proj   IRMAX =      1   max aug-charges    IRDMAX=   8641
   dimension x,y,z NGX =   210 NGY =  210 NGZ =  210
   dimension x,y,z NGXF=   420 NGYF=  420 NGZF=  420
   support grid    NGXF=   420 NGYF=  420 NGZF=  420
   ions per type =               2   2   4
   NGX,Y,Z   is equivalent  to a cutoff of  17.46, 17.46, 17.46 a.u.
   NGXF,Y,Z  is equivalent  to a cutoff of  34.91, 34.91, 34.91 a.u.

 SYSTEM =  unknown system                          
 POSCAR =   C  H  O                                

 Startparameter for this run:
   NWRITE =      2    write-flag & timer
   PREC   = accura    normal or accurate (medium, high low for compatibility)
   ISTART =      0    job   : 0-new  1-cont  2-samecut
   ICHARG =      2    charge: 1-file 2-atom 10-const
   ISPIN  =      1    spin polarized calculation?
   LNONCOLLINEAR =      F non collinear calculations
   LSORBIT =      F    spin-orbit coupling
   INIWAV =      1    electr: 0-lowe 1-rand  2-diag
   LASPH  =      F    aspherical Exc in radial PAW
 Electronic Relaxation 1
   ENCUT  = 1000.0 eV  73.50 Ry    8.57 a.u.  51.57 51.57 51.57*2*pi/ulx,y,z
   ENINI  = 1000.0     initial cutoff
   ENAUG  = 1000.0 eV  augmentation charge cutoff
   NELM   =     60;   NELMIN=  2; NELMDL= -5     # of ELM steps 
   EDIFF  = 0.1E-06   stopping-criterion for ELM
   LREAL  =      F    real-space projection
   NLSPLINE    = F    spline interpolate recip. space projectors
   LCOMPAT=      F    compatible to vasp.4.4
   GGA_COMPAT  = T    GGA compatible to vasp.4.4-vasp.4.6
   LMAXPAW     = -100 max onsite density
   LMAXMIX     =    2 max onsite mixed and CHGCAR
   VOSKOWN=      0    Vosko Wilk Nusair interpolation
   ROPT   =    0.00000   0.00000   0.00000
 Ionic relaxation
   EDIFFG = 0.1E-05   stopping-criterion for IOM
   NSW    =      0    number of steps for IOM
   NBLOCK =      1;   KBLOCK =      1    inner block; outer block 
   IBRION =     -1    ionic relax: 0-MD 1-quasi-New 2-CG
   NFREE  =      0    steps in history (QN), initial steepest desc. (CG)
   ISIF   =      0    stress and relaxation
   IWAVPR =     10    prediction:  0-non 1-charg 2-wave 3-comb
   ISYM   =      2    0-nonsym 1-usesym 2-fastsym
   LCORR  =      T    Harris-Foulkes like correction to forces

   POTIM  = 0.5000    time-step for ionic-motion
   TEIN   =    0.0    initial temperature
   TEBEG  =    0.0;   TEEND  =   0.0 temperature during run
   SMASS  =  -3.00    Nose mass-parameter (am)
   estimated Nose-frequenzy (Omega)   =  0.10E-29 period in steps = 0.13E+47 mass=  -0.914E-26a.u.
   SCALEE = 1.0000    scale energy and forces
   NPACO  =    256;   APACO  = 10.0  distance and # of slots for P.C.
   PSTRESS=    0.0 pullay stress

  Mass of Ions in am
   POMASS =  12.01  1.00 16.00
  Ionic Valenz
   ZVAL   =   4.00  1.00  6.00
  Atomic Wigner-Seitz radii
   RWIGS  =  -1.00 -1.00 -1.00
  virtual crystal weights 
   VCA    =   1.00  1.00  1.00
   NELECT =      34.0000    total number of electrons
   NUPDOWN=      -1.0000    fix difference up-down

 DOS related values:
   EMIN   =  10.00;   EMAX   =-10.00  energy-range for DOS
   EFERMI =   0.00;   METHOD = LEGACY      
   ISMEAR =     0;   SIGMA  =   0.01  broadening in eV -4-tet -1-fermi 0-gaus

 Electronic relaxation 2 (details)
   IALGO  =     58    algorithm
   LDIAG  =      T    sub-space diagonalisation (order eigenvalues)
   LSUBROT=      F    optimize rotation matrix (better conditioning)
   TURBO    =      0    0=normal 1=particle mesh
   IRESTART =      0    0=no restart 2=restart with 2 vectors
   NREBOOT  =      0    no. of reboots
   NMIN     =      0    reboot dimension
   EREF     =   0.00    reference energy to select bands
   IMIX   =      4    mixing-type and parameters
     AMIX     =   0.40;   BMIX     =  1.00
     AMIX_MAG =   1.60;   BMIX_MAG =  1.00
     AMIN     =   0.10
     WC   =   100.;   INIMIX=   1;  MIXPRE=   1;  MAXMIX= -45

 Intra band minimization:
   WEIMIN = 0.0000     energy-eigenvalue tresh-hold
   EBREAK =  0.98E-10  absolut break condition
   DEPER  =   0.30     relativ break condition  

   TIME   =   0.40     timestep for ELM

  volume/ion in A,a.u.               =    1000.00      6748.33
  Fermi-wavevector in a.u.,A,eV,Ry     =   0.265178  0.501114  0.956755  0.070319
  Thomas-Fermi vector in A             =   1.098052

 Write flags
   LWAVE        =      F    write WAVECAR
   LDOWNSAMPLE  =      F    k-point downsampling of WAVECAR
   LCHARG       =      F    write CHGCAR
   LVTOT        =      F    write LOCPOT, total local potential
   LVHAR        =      F    write LOCPOT, Hartree potential only
   LELF         =      F    write electronic localiz. function (ELF)
   LORBIT       =      0    0 simple, 1 ext, 2 COOP (PROOUT), +10 PAW based schemes


 Dipole corrections
   LMONO  =      F    monopole corrections only (constant potential shift)
   LDIPOL =      F    correct potential (dipole corrections)
   IDIPOL =      0    1-x, 2-y, 3-z, 4-all directions 
   EPSILON=  1.0000000 bulk dielectric constant

 Exchange correlation treatment:
   GGA     =    B5    GGA type
   LEXCH   =    12    internal setting for exchange type
   LIBXC   =     F    Libxc                    
   VOSKOWN =     0    Vosko Wilk Nusair interpolation
   LHFCALC =     F    Hartree Fock is set to
   LHFONE  =     F    Hartree Fock one center treatment
   AEXX    =    0.0000 exact exchange contribution

 Linear response parameters
   LEPSILON=     F    determine dielectric tensor
   LRPA    =     F    only Hartree local field effects (RPA)
   LNABLA  =     F    use nabla operator in PAW spheres
   LVEL    =     F    velocity operator in full k-point grid
   CSHIFT  =0.1000    complex shift for real part using Kramers Kronig
   OMEGAMAX=  -1.0    maximum frequency
   DEG_THRESHOLD= 0.2000000E-02 threshold for treating states as degnerate
   RTIME   =   -0.100 relaxation time in fs
  (WPLASMAI=    0.000 imaginary part of plasma frequency in eV, 0.658/RTIME)
   DFIELD  = 0.0000000 0.0000000 0.0000000 field for delta impulse in time

  Optional k-point grid parameters
   LKPOINTS_OPT  =     F    use optional k-point grid
   KPOINTS_OPT_MODE=     1    mode for optional k-point grid

 Orbital magnetization related:
   ORBITALMAG=     F  switch on orbital magnetization
   LCHIMAG   =     F  perturbation theory with respect to B field
   DQ        =  0.001000  dq finite difference perturbation B field
   LLRAUG    =     F  two centre corrections for induced B field
   LBONE     =     F  B-component reconstruction in AE one-centre
   LVGVCALC  =     T  calculate vGv susceptibility
   LVGVAPPL  =     F  apply vGv susceptibility instead of pGv for G=0

 Random number generation:
   RANDOM_GENERATOR = DEFAULT
   PCG_SEED         = not used


--------------------------------------------------------------------------------------------------------


 Static calculation
 charge density and potential will be updated during run
 non-spin polarized calculation
 Conjugate gradient for all bands (Freysoldt, et al. PRB 79, 241103 (2009))
 preconditioned conjugated gradient                                        
 perform sub-space diagonalisation
    before iterative eigenvector-optimisation
 modified Broyden-mixing scheme, WC =      100.0
 initial mixing is a Kerker type mixing with AMIX =  0.4000 and BMIX =      1.0000
 Hartree-type preconditioning will be used
 using additional bands          239
 reciprocal scheme for non local part
 use partial core corrections
 no Harris-corrections to forces 
 use gradient corrections 
 use of overlap-Matrix (Vanderbilt PP)
 Gauss-broadening in eV      SIGMA  =   0.01


--------------------------------------------------------------------------------------------------------


  energy-cutoff  :     1000.00
  volume of cell :     8000.00
      direct lattice vectors                 reciprocal lattice vectors
    20.000000000  0.000000000  0.000000000     0.050000000  0.000000000  0.000000000
     0.000000000 20.000000000  0.000000000     0.000000000  0.050000000  0.000000000
     0.000000000  0.000000000 20.000000000     0.000000000  0.000000000  0.050000000

  length of vectors
    20.000000000 20.000000000 20.000000000     0.050000000  0.050000000  0.050000000



 k-points in units of 2pi/SCALE and weight: auto                                    
   0.00000000  0.00000000  0.00000000       1.000

 k-points in reciprocal lattice and weights: auto                                    
   0.00000000  0.00000000  0.00000000       1.000

 position of ions in fractional coordinates (direct lattice) 
   0.51829350  0.47978450  0.47265575
   0.48170400  0.52018700  0.52733675
   0.46370800  0.41070550  0.50385475
   0.53625250  0.58929450  0.49610875
   0.56059850  0.50498450  0.43744975
   0.43940150  0.49501600  0.56255025
   0.49823450  0.41629500  0.46917275
   0.50172300  0.58368250  0.53077125

 position of ions in cartesian coordinates  (Angst):
  10.36587000  9.59569000  9.45311500
   9.63408000 10.40374000 10.54673500
   9.27416000  8.21411000 10.07709500
  10.72505000 11.78589000  9.92217500
  11.21197000 10.09969000  8.74899500
   8.78803000  9.90032000 11.25100500
   9.96469000  8.32590000  9.38345500
  10.03446000 11.67365000 10.61542500



--------------------------------------------------------------------------------------------------------


 use parallel FFT for orbitals z direction half grid
 k-point   1 :   0.0000 0.0000 0.0000  plane waves:  287166

 maximum and minimum number of plane-waves per node :    143587   143579

 maximum number of plane-waves:    287166
 maximum index in each direction: 
   IXMAX=   51   IYMAX=   51   IZMAX=   51
   IXMIN=  -51   IYMIN=  -51   IZMIN=    0


 parallel 3D FFT for wavefunctions:
    minimum data exchange during FFTs selected (reduces bandwidth)
 parallel 3D FFT for charge:
    minimum data exchange during FFTs selected (reduces bandwidth)


 total amount of memory used by VASP MPI-rank0   382402. kBytes
=======================================================================

   base      :      30000. kBytes
   nonl-proj :      45957. kBytes
   fftplans  :     102640. kBytes
   grid      :     196902. kBytes
   one-center:          6. kBytes
   wavefun   :       6897. kBytes

     INWAV:  cpu time      0.0001: real time      0.0001
 Broyden mixing: mesh for mixing (old mesh)
   NGX =103   NGY =103   NGZ =103
  (NGX  =420   NGY  =420   NGZ  =420)
  gives a total of ****** points

 initial charge density was supplied:
 charge density of overlapping atoms calculated
 number of electron      34.0000000 magnetization 
 keeping initial charge density in first step


--------------------------------------------------------------------------------------------------------


 Maximum index for augmentation-charges            0 (set IRDMAX)


--------------------------------------------------------------------------------------------------------


 First call to EWALD:  gamma=   0.089
 Maximum number of real-space cells 3x 3x 3
 Maximum number of reciprocal cells 3x 3x 3

    FEWALD:  cpu time      0.0041: real time      0.0044


--------------------------------------- Ionic step        1  -------------------------------------------




--------------------------------------- Iteration      1(   1)  ---------------------------------------


    POTLOK:  cpu time      0.6788: real time      0.6801
    SETDIJ:  cpu time      0.0153: real time      0.0155
    TRIAL :  cpu time      4.1517: real time      4.1562
    CORREC:  cpu time      0.0024: real time      0.0026
    --------------------------------------------
      LOOP:  cpu time      4.8569: real time      4.8633

 eigenvalue-minimisations  :   512
 total energy-change (2. order) : 0.4356887E+03  (-0.1526487E+04)
 number of electron      34.0000000 magnetization 
 augmentation part       34.0000000 magnetization 

 Free energy of the ion-electron system (eV)
  ---------------------------------------------------
  alpha Z        PSCENC =         0.40154822
  Ewald energy   TEWEN  =      2257.36198512
  -Hartree energ DENC   =     -3871.20669808
  -exchange      EXHF   =         0.00000000
  -V(xc)+E(xc)   XCENC  =       119.40533920
  PAW double counting   =      1621.57344000    -1617.62280905
  entropy T*S    EENTRO =        -0.00624083
  eigenvalues    EBANDS =      -124.98928104
  atomic energy  EATOM  =      2050.77139797
  ---------------------------------------------------
  free energy    TOTEN  =       435.68868152 eV

  energy without entropy =      435.69492235  energy(sigma->0) =      435.69180193


--------------------------------------------------------------------------------------------------------




--------------------------------------- Iteration      1(   2)  ---------------------------------------


    TRIAL :  cpu time     12.1405: real time     12.1462
    CORREC:  cpu time      0.0002: real time      0.0002
    --------------------------------------------
      LOOP:  cpu time     12.1549: real time     12.1780

 eigenvalue-minimisations  :  1024
 total energy-change (2. order) :-0.4822399E+03  (-0.4806646E+03)
 number of electron      34.0000000 magnetization 
 augmentation part       34.0000000 magnetization 

 Free energy of the ion-electron system (eV)
  ---------------------------------------------------
  alpha Z        PSCENC =         0.40154822
  Ewald energy   TEWEN  =      2257.36198512
  -Hartree energ DENC   =     -3871.20669808
  -exchange      EXHF   =         0.00000000
  -V(xc)+E(xc)   XCENC  =       119.40533920
  PAW double counting   =      1621.57344000    -1617.62280905
  entropy T*S    EENTRO =        -0.00000000
  eigenvalues    EBANDS =      -607.23538309
  atomic energy  EATOM  =      2050.77139797
  ---------------------------------------------------
  free energy    TOTEN  =       -46.55117970 eV

  energy without entropy =      -46.55117970  energy(sigma->0) =      -46.55117970


--------------------------------------------------------------------------------------------------------




--------------------------------------- Iteration      1(   3)  ---------------------------------------


    TRIAL :  cpu time      4.3053: real time      4.3074
    CORREC:  cpu time      0.0002: real time      0.0002
    --------------------------------------------
      LOOP:  cpu time      4.3225: real time      4.3389

 eigenvalue-minimisations  :   512
 total energy-change (2. order) :-0.8644181E+01  (-0.8644181E+01)
 number of electron      34.0000000 magnetization 
 augmentation part       34.0000000 magnetization 

 Free energy of the ion-electron system (eV)
  ---------------------------------------------------
  alpha Z        PSCENC =         0.40154822
  Ewald energy   TEWEN  =      2257.36198512
  -Hartree energ DENC   =     -3871.20669808
  -exchange      EXHF   =         0.00000000
  -V(xc)+E(xc)   XCENC  =       119.40533920
  PAW double counting   =      1621.57344000    -1617.62280905
  entropy T*S    EENTRO =        -0.00000000
  eigenvalues    EBANDS =      -615.87956448
  atomic energy  EATOM  =      2050.77139797
  ---------------------------------------------------
  free energy    TOTEN  =       -55.19536109 eV

  energy without entropy =      -55.19536109  energy(sigma->0) =      -55.19536109


--------------------------------------------------------------------------------------------------------




--------------------------------------- Iteration      1(   4)  ---------------------------------------


    TRIAL :  cpu time     11.9380: real time     11.9434
    CORREC:  cpu time      0.0002: real time      0.0002
    --------------------------------------------
      LOOP:  cpu time     11.9698: real time     11.9755

 eigenvalue-minimisations  :  1024
 total energy-change (2. order) :-0.7033837E-01  (-0.7033836E-01)
 number of electron      34.0000000 magnetization 
 augmentation part       34.0000000 magnetization 

 Free energy of the ion-electron system (eV)
  ---------------------------------------------------
  alpha Z        PSCENC =         0.40154822
  Ewald energy   TEWEN  =      2257.36198512
  -Hartree energ DENC   =     -3871.20669808
  -exchange      EXHF   =         0.00000000
  -V(xc)+E(xc)   XCENC  =       119.40533920
  PAW double counting   =      1621.57344000    -1617.62280905
  entropy T*S    EENTRO =        -0.00000000
  eigenvalues    EBANDS =      -615.94990285
  atomic energy  EATOM  =      2050.77139797
  ---------------------------------------------------
  free energy    TOTEN  =       -55.26569946 eV

  energy without entropy =      -55.26569946  energy(sigma->0) =      -55.26569946


--------------------------------------------------------------------------------------------------------




--------------------------------------- Iteration      1(   5)  ---------------------------------------


    TRIAL :  cpu time      4.2816: real time      4.2837
    CORREC:  cpu time      0.0002: real time      0.0002
    CHARGE:  cpu time      0.9613: real time      0.9626
    --------------------------------------------
      LOOP:  cpu time      5.2570: real time      5.2800

 eigenvalue-minimisations  :   512
 total energy-change (2. order) :-0.2966975E-05  (-0.2960011E-05)
 number of electron      34.0000000 magnetization 
 augmentation part        0.3321372 magnetization 

 Free energy of the ion-electron system (eV)
  ---------------------------------------------------
  alpha Z        PSCENC =         0.40154822
  Ewald energy   TEWEN  =      2257.36198512
  -Hartree energ DENC   =     -3871.20669808
  -exchange      EXHF   =         0.00000000
  -V(xc)+E(xc)   XCENC  =       119.40533920
  PAW double counting   =      1621.57344000    -1617.62280905
  entropy T*S    EENTRO =        -0.00000000
  eigenvalues    EBANDS =      -615.94990581
  atomic energy  EATOM  =      2050.77139797
  ---------------------------------------------------
  free energy    TOTEN  =       -55.26570243 eV

  energy without entropy =      -55.26570243  energy(sigma->0) =      -55.26570243


--------------------------------------------------------------------------------------------------------




--------------------------------------- Iteration      1(   6)  ---------------------------------------


    POTLOK:  cpu time      0.3865: real time      0.3872
    SETDIJ:  cpu time      0.0045: real time      0.0045
    TRIAL :  cpu time      1.8407: real time      1.8451
    CORREC:  cpu time      1.8749: real time      1.8757
    CHARGE:  cpu time      0.9370: real time      0.9376
    --------------------------------------------
      LOOP:  cpu time      5.0603: real time      5.0798

 eigenvalue-minimisations  :     0
 total energy-change (2. order) : 0.1173306E+02  (-0.5867557E+01)
 number of electron      34.0000000 magnetization 
 augmentation part        0.2289042 magnetization 

 Free energy of the ion-electron system (eV)
  ---------------------------------------------------
  alpha Z        PSCENC =         0.40154822
  Ewald energy   TEWEN  =      2257.36198512
  -Hartree energ DENC   =     -4075.24322041
  -exchange      EXHF   =         0.00000000
  -V(xc)+E(xc)   XCENC  =       130.94183185
  PAW double counting   =     13548.63591807   -13547.94808973
  entropy T*S    EENTRO =        -0.00000000
  eigenvalues    EBANDS =      -408.45401591
  atomic energy  EATOM  =      2050.77139797
  ---------------------------------------------------
  free energy    TOTEN  =       -43.53264481 eV

  energy without entropy =      -43.53264481  energy(sigma->0) =      -43.53264481


--------------------------------------------------------------------------------------------------------




--------------------------------------- Iteration      1(   7)  ---------------------------------------


    POTLOK:  cpu time      0.3835: real time      0.3837
    SETDIJ:  cpu time      0.0045: real time      0.0045
    TRIAL :  cpu time      1.7911: real time      1.7919
    CORREC:  cpu time      1.8470: real time      1.8473
    CHARGE:  cpu time      0.9517: real time      0.9521
    --------------------------------------------
      LOOP:  cpu time      5.0073: real time      5.0093

 eigenvalue-minimisations  :     0
 total energy-change (2. order) :-0.5900777E+01  (-0.8487260E+00)
 number of electron      34.0000000 magnetization 
 augmentation part        0.1856650 magnetization 

 Free energy of the ion-electron system (eV)
  ---------------------------------------------------
  alpha Z        PSCENC =         0.40154822
  Ewald energy   TEWEN  =      2257.36198512
  -Hartree energ DENC   =     -3969.51164917
  -exchange      EXHF   =         0.00000000
  -V(xc)+E(xc)   XCENC  =       125.10419606
  PAW double counting   =     16944.81303395   -16942.54558537
  entropy T*S    EENTRO =        -0.00000000
  eigenvalues    EBANDS =      -515.82834868
  atomic energy  EATOM  =      2050.77139797
  ---------------------------------------------------
  free energy    TOTEN  =       -49.43342190 eV

  energy without entropy =      -49.43342190  energy(sigma->0) =      -49.43342190


--------------------------------------------------------------------------------------------------------




--------------------------------------- Iteration      1(   8)  ---------------------------------------


    POTLOK:  cpu time      0.3833: real time      0.3836
    SETDIJ:  cpu time      0.0042: real time      0.0042
    TRIAL :  cpu time      1.7878: real time      1.7885
    CORREC:  cpu time      1.8196: real time      1.8203
    CHARGE:  cpu time      0.9360: real time      0.9364
    --------------------------------------------
      LOOP:  cpu time      4.9440: real time      4.9661

 eigenvalue-minimisations  :     0
 total energy-change (2. order) :-0.8498524E+00  (-0.3112779E+00)
 number of electron      34.0000000 magnetization 
 augmentation part        0.1829159 magnetization 

 Free energy of the ion-electron system (eV)
  ---------------------------------------------------
  alpha Z        PSCENC =         0.40154822
  Ewald energy   TEWEN  =      2257.36198512
  -Hartree energ DENC   =     -3975.49479695
  -exchange      EXHF   =         0.00000000
  -V(xc)+E(xc)   XCENC  =       124.88372512
  PAW double counting   =     17532.68790253   -17530.12967963
  entropy T*S    EENTRO =        -0.00000000
  eigenvalues    EBANDS =      -510.76535666
  atomic energy  EATOM  =      2050.77139797
  ---------------------------------------------------
  free energy    TOTEN  =       -50.28327428 eV

  energy without entropy =      -50.28327428  energy(sigma->0) =      -50.28327428


--------------------------------------------------------------------------------------------------------




--------------------------------------- Iteration      1(   9)  ---------------------------------------


    POTLOK:  cpu time      0.3864: real time      0.3866
    SETDIJ:  cpu time      0.0044: real time      0.0044
    TRIAL :  cpu time      1.7852: real time      1.7863
    CORREC:  cpu time      1.8273: real time      1.8277
    CHARGE:  cpu time      0.9328: real time      0.9332
    --------------------------------------------
      LOOP:  cpu time      4.9500: real time      4.9718

 eigenvalue-minimisations  :     0
 total energy-change (2. order) :-0.3107752E+00  (-0.1274470E+00)
 number of electron      34.0000000 magnetization 
 augmentation part        0.1869010 magnetization 

 Free energy of the ion-electron system (eV)
  ---------------------------------------------------
  alpha Z        PSCENC =         0.40154822
  Ewald energy   TEWEN  =      2257.36198512
  -Hartree energ DENC   =     -3977.01657719
  -exchange      EXHF   =         0.00000000
  -V(xc)+E(xc)   XCENC  =       124.76707368
  PAW double counting   =     18135.63780845   -18133.03914703
  entropy T*S    EENTRO =        -0.00000000
  eigenvalues    EBANDS =      -509.47813871
  atomic energy  EATOM  =      2050.77139797
  ---------------------------------------------------
  free energy    TOTEN  =       -50.59404948 eV

  energy without entropy =      -50.59404948  energy(sigma->0) =      -50.59404948


--------------------------------------------------------------------------------------------------------




--------------------------------------- Iteration      1(  10)  ---------------------------------------


    POTLOK:  cpu time      0.3825: real time      0.3829
    SETDIJ:  cpu time      0.0043: real time      0.0043
    TRIAL :  cpu time      1.7893: real time      1.7902
    CORREC:  cpu time      1.8215: real time      1.8224
    CHARGE:  cpu time      0.9413: real time      0.9417
    --------------------------------------------
      LOOP:  cpu time      4.9530: real time      4.9712

 eigenvalue-minimisations  :     0
 total energy-change (2. order) :-0.1266865E+00  (-0.4354157E-01)
 number of electron      34.0000000 magnetization 
 augmentation part        0.1883704 magnetization 

 Free energy of the ion-electron system (eV)
  ---------------------------------------------------
  alpha Z        PSCENC =         0.40154822
  Ewald energy   TEWEN  =      2257.36198512
  -Hartree energ DENC   =     -3971.18423237
  -exchange      EXHF   =         0.00000000
  -V(xc)+E(xc)   XCENC  =       124.54880805
  PAW double counting   =     17975.11768062   -17972.53543057
  entropy T*S    EENTRO =        -0.00000000
  eigenvalues    EBANDS =      -515.20249299
  atomic energy  EATOM  =      2050.77139797
  ---------------------------------------------------
  free energy    TOTEN  =       -50.72073594 eV

  energy without entropy =      -50.72073594  energy(sigma->0) =      -50.72073594


--------------------------------------------------------------------------------------------------------




--------------------------------------- Iteration      1(  11)  ---------------------------------------


    POTLOK:  cpu time      0.4058: real time      0.4062
    SETDIJ:  cpu time      0.0043: real time      0.0043
    TRIAL :  cpu time      1.7893: real time      1.7900
    CORREC:  cpu time      1.8369: real time      1.8376
    CHARGE:  cpu time      0.9371: real time      0.9374
    --------------------------------------------
      LOOP:  cpu time      4.9875: real time      5.0084

 eigenvalue-minimisations  :     0
 total energy-change (2. order) :-0.4349066E-01  (-0.1335230E-01)
 number of electron      34.0000000 magnetization 
 augmentation part        0.1892530 magnetization 

 Free energy of the ion-electron system (eV)
  ---------------------------------------------------
  alpha Z        PSCENC =         0.40154822
  Ewald energy   TEWEN  =      2257.36198512
  -Hartree energ DENC   =     -3967.89341996
  -exchange      EXHF   =         0.00000000
  -V(xc)+E(xc)   XCENC  =       124.45914625
  PAW double counting   =     17637.65817121   -17635.09687268
  entropy T*S    EENTRO =        -0.00000000
  eigenvalues    EBANDS =      -518.42618274
  atomic energy  EATOM  =      2050.77139797
  ---------------------------------------------------
  free energy    TOTEN  =       -50.76422661 eV

  energy without entropy =      -50.76422661  energy(sigma->0) =      -50.76422661


--------------------------------------------------------------------------------------------------------




--------------------------------------- Iteration      1(  12)  ---------------------------------------


    POTLOK:  cpu time      0.3839: real time      0.3842
    SETDIJ:  cpu time      0.0052: real time      0.0052
    TRIAL :  cpu time      1.7975: real time      1.7983
    CORREC:  cpu time      1.8222: real time      1.8231
    CHARGE:  cpu time      0.9345: real time      0.9349
    --------------------------------------------
      LOOP:  cpu time      4.9584: real time      4.9773

 eigenvalue-minimisations  :     0
 total energy-change (2. order) :-0.1333887E-01  (-0.3587715E-02)
 number of electron      34.0000000 magnetization 
 augmentation part        0.1890143 magnetization 

 Free energy of the ion-electron system (eV)
  ---------------------------------------------------
  alpha Z        PSCENC =         0.40154822
  Ewald energy   TEWEN  =      2257.36198512
  -Hartree energ DENC   =     -3966.74780072
  -exchange      EXHF   =         0.00000000
  -V(xc)+E(xc)   XCENC  =       124.42711124
  PAW double counting   =     17531.55784959   -17529.00612978
  entropy T*S    EENTRO =        -0.00000000
  eigenvalues    EBANDS =      -519.54352712
  atomic energy  EATOM  =      2050.77139797
  ---------------------------------------------------
  free energy    TOTEN  =       -50.77756548 eV

  energy without entropy =      -50.77756548  energy(sigma->0) =      -50.77756548


--------------------------------------------------------------------------------------------------------




--------------------------------------- Iteration      1(  13)  ---------------------------------------


    POTLOK:  cpu time      0.3827: real time      0.3830
    SETDIJ:  cpu time      0.0042: real time      0.0042
    TRIAL :  cpu time      1.7899: real time      1.7907
    CORREC:  cpu time      1.8203: real time      1.8211
    CHARGE:  cpu time      0.9367: real time      0.9369
    --------------------------------------------
      LOOP:  cpu time      4.9572: real time      4.9660

 eigenvalue-minimisations  :     0
 total energy-change (2. order) :-0.3590268E-02  (-0.9242615E-03)
 number of electron      34.0000000 magnetization 
 augmentation part        0.1886394 magnetization 

 Free energy of the ion-electron system (eV)
  ---------------------------------------------------
  alpha Z        PSCENC =         0.40154822
  Ewald energy   TEWEN  =      2257.36198512
  -Hartree energ DENC   =     -3966.02424293
  -exchange      EXHF   =         0.00000000
  -V(xc)+E(xc)   XCENC  =       124.40476844
  PAW double counting   =     17530.39847722   -17527.84416129
  entropy T*S    EENTRO =        -0.00000000
  eigenvalues    EBANDS =      -520.25092850
  atomic energy  EATOM  =      2050.77139797
  ---------------------------------------------------
  free energy    TOTEN  =       -50.78115575 eV

  energy without entropy =      -50.78115575  energy(sigma->0) =      -50.78115575


--------------------------------------------------------------------------------------------------------




--------------------------------------- Iteration      1(  14)  ---------------------------------------


    POTLOK:  cpu time      0.3813: real time      0.3816
    SETDIJ:  cpu time      0.0043: real time      0.0043
    TRIAL :  cpu time      1.7854: real time      1.7862
    CORREC:  cpu time      1.8215: real time      1.8223
    CHARGE:  cpu time      0.9267: real time      0.9272
    --------------------------------------------
      LOOP:  cpu time      4.9318: real time      4.9513

 eigenvalue-minimisations  :     0
 total energy-change (2. order) :-0.9208580E-03  (-0.2584408E-03)
 number of electron      34.0000000 magnetization 
 augmentation part        0.1884470 magnetization 

 Free energy of the ion-electron system (eV)
  ---------------------------------------------------
  alpha Z        PSCENC =         0.40154822
  Ewald energy   TEWEN  =      2257.36198512
  -Hartree energ DENC   =     -3965.87170961
  -exchange      EXHF   =         0.00000000
  -V(xc)+E(xc)   XCENC  =       124.40253177
  PAW double counting   =     17538.16091546   -17535.60460919
  entropy T*S    EENTRO =        -0.00000000
  eigenvalues    EBANDS =      -520.40413636
  atomic energy  EATOM  =      2050.77139797
  ---------------------------------------------------
  free energy    TOTEN  =       -50.78207660 eV

  energy without entropy =      -50.78207660  energy(sigma->0) =      -50.78207660


--------------------------------------------------------------------------------------------------------




--------------------------------------- Iteration      1(  15)  ---------------------------------------


    POTLOK:  cpu time      0.3806: real time      0.3812
    SETDIJ:  cpu time      0.0044: real time      0.0044
    TRIAL :  cpu time      1.7878: real time      1.7888
    CORREC:  cpu time      1.8101: real time      1.8111
    CHARGE:  cpu time      0.9273: real time      0.9278
    --------------------------------------------
      LOOP:  cpu time      4.9415: real time      4.9447

 eigenvalue-minimisations  :     0
 total energy-change (2. order) :-0.2604215E-03  (-0.8115057E-04)
 number of electron      34.0000000 magnetization 
 augmentation part        0.1883792 magnetization 

 Free energy of the ion-electron system (eV)
  ---------------------------------------------------
  alpha Z        PSCENC =         0.40154822
  Ewald energy   TEWEN  =      2257.36198512
  -Hartree energ DENC   =     -3965.98380241
  -exchange      EXHF   =         0.00000000
  -V(xc)+E(xc)   XCENC  =       124.40745360
  PAW double counting   =     17536.31833914   -17533.76171954
  entropy T*S    EENTRO =        -0.00000000
  eigenvalues    EBANDS =      -520.29753913
  atomic energy  EATOM  =      2050.77139797
  ---------------------------------------------------
  free energy    TOTEN  =       -50.78233703 eV

  energy without entropy =      -50.78233703  energy(sigma->0) =      -50.78233703


--------------------------------------------------------------------------------------------------------




--------------------------------------- Iteration      1(  16)  ---------------------------------------


    POTLOK:  cpu time      0.3799: real time      0.3803
    SETDIJ:  cpu time      0.0043: real time      0.0043
    TRIAL :  cpu time      1.7881: real time      1.7889
    CORREC:  cpu time      1.8186: real time      1.8194
    CHARGE:  cpu time      0.9326: real time      0.9330
    --------------------------------------------
      LOOP:  cpu time      4.9392: real time      4.9566

 eigenvalue-minimisations  :     0
 total energy-change (2. order) :-0.8412529E-04  (-0.3080345E-04)
 number of electron      34.0000000 magnetization 
 augmentation part        0.1884079 magnetization 

 Free energy of the ion-electron system (eV)
  ---------------------------------------------------
  alpha Z        PSCENC =         0.40154822
  Ewald energy   TEWEN  =      2257.36198512
  -Hartree energ DENC   =     -3966.01051585
  -exchange      EXHF   =         0.00000000
  -V(xc)+E(xc)   XCENC  =       124.40793017
  PAW double counting   =     17529.47244031   -17526.91538482
  entropy T*S    EENTRO =        -0.00000000
  eigenvalues    EBANDS =      -520.27182227
  atomic energy  EATOM  =      2050.77139797
  ---------------------------------------------------
  free energy    TOTEN  =       -50.78242115 eV

  energy without entropy =      -50.78242115  energy(sigma->0) =      -50.78242115


--------------------------------------------------------------------------------------------------------




--------------------------------------- Iteration      1(  17)  ---------------------------------------


    POTLOK:  cpu time      0.3774: real time      0.3774
    SETDIJ:  cpu time      0.0043: real time      0.0043
    TRIAL :  cpu time      1.7863: real time      1.7877
    CORREC:  cpu time      1.8231: real time      1.8239
    CHARGE:  cpu time      0.9351: real time      0.9355
    --------------------------------------------
      LOOP:  cpu time      4.9415: real time      4.9590

 eigenvalue-minimisations  :     0
 total energy-change (2. order) :-0.2913235E-04  (-0.7760700E-05)
 number of electron      34.0000000 magnetization 
 augmentation part        0.1884213 magnetization 

 Free energy of the ion-electron system (eV)
  ---------------------------------------------------
  alpha Z        PSCENC =         0.40154822
  Ewald energy   TEWEN  =      2257.36198512
  -Hartree energ DENC   =     -3966.05720591
  -exchange      EXHF   =         0.00000000
  -V(xc)+E(xc)   XCENC  =       124.40978147
  PAW double counting   =     17521.68926307   -17519.13254697
  entropy T*S    EENTRO =        -0.00000000
  eigenvalues    EBANDS =      -520.22667326
  atomic energy  EATOM  =      2050.77139797
  ---------------------------------------------------
  free energy    TOTEN  =       -50.78245028 eV

  energy without entropy =      -50.78245028  energy(sigma->0) =      -50.78245028


--------------------------------------------------------------------------------------------------------




--------------------------------------- Iteration      1(  18)  ---------------------------------------


    POTLOK:  cpu time      0.4039: real time      0.4040
    SETDIJ:  cpu time      0.0046: real time      0.0046
    TRIAL :  cpu time      1.7912: real time      1.7927
    CORREC:  cpu time      1.8330: real time      1.8337
    CHARGE:  cpu time      0.9338: real time      0.9342
    --------------------------------------------
      LOOP:  cpu time      4.9978: real time      5.0006

 eigenvalue-minimisations  :     0
 total energy-change (2. order) :-0.8027735E-05  (-0.2983706E-05)
 number of electron      34.0000000 magnetization 
 augmentation part        0.1884193 magnetization 

 Free energy of the ion-electron system (eV)
  ---------------------------------------------------
  alpha Z        PSCENC =         0.40154822
  Ewald energy   TEWEN  =      2257.36198512
  -Hartree energ DENC   =     -3966.08123655
  -exchange      EXHF   =         0.00000000
  -V(xc)+E(xc)   XCENC  =       124.41057533
  PAW double counting   =     17519.85322822   -17517.29664769
  entropy T*S    EENTRO =        -0.00000000
  eigenvalues    EBANDS =      -520.20330894
  atomic energy  EATOM  =      2050.77139797
  ---------------------------------------------------
  free energy    TOTEN  =       -50.78245831 eV

  energy without entropy =      -50.78245831  energy(sigma->0) =      -50.78245831


--------------------------------------------------------------------------------------------------------




--------------------------------------- Iteration      1(  19)  ---------------------------------------


    POTLOK:  cpu time      0.3768: real time      0.3768
    SETDIJ:  cpu time      0.0043: real time      0.0043
    TRIAL :  cpu time      1.7894: real time      1.7908
    CORREC:  cpu time      1.8141: real time      1.8148
    CHARGE:  cpu time      0.9432: real time      0.9435
    --------------------------------------------
      LOOP:  cpu time      4.9417: real time      4.9606

 eigenvalue-minimisations  :     0
 total energy-change (2. order) :-0.3041721E-05  (-0.1768500E-05)
 number of electron      34.0000000 magnetization 
 augmentation part        0.1884111 magnetization 

 Free energy of the ion-electron system (eV)
  ---------------------------------------------------
  alpha Z        PSCENC =         0.40154822
  Ewald energy   TEWEN  =      2257.36198512
  -Hartree energ DENC   =     -3966.08617287
  -exchange      EXHF   =         0.00000000
  -V(xc)+E(xc)   XCENC  =       124.41062701
  PAW double counting   =     17520.42232822   -17517.86569530
  entropy T*S    EENTRO =        -0.00000000
  eigenvalues    EBANDS =      -520.19847972
  atomic energy  EATOM  =      2050.77139797
  ---------------------------------------------------
  free energy    TOTEN  =       -50.78246135 eV

  energy without entropy =      -50.78246135  energy(sigma->0) =      -50.78246135


--------------------------------------------------------------------------------------------------------




--------------------------------------- Iteration      1(  20)  ---------------------------------------


    POTLOK:  cpu time      0.3754: real time      0.3754
    SETDIJ:  cpu time      0.0043: real time      0.0043
    TRIAL :  cpu time      1.7867: real time      1.7878
    CORREC:  cpu time      1.8118: real time      1.8128
    CHARGE:  cpu time      0.9395: real time      0.9398
    --------------------------------------------
      LOOP:  cpu time      4.9331: real time      4.9504

 eigenvalue-minimisations  :     0
 total energy-change (2. order) :-0.2095443E-05  (-0.3790718E-06)
 number of electron      34.0000000 magnetization 
 augmentation part        0.1884091 magnetization 

 Free energy of the ion-electron system (eV)
  ---------------------------------------------------
  alpha Z        PSCENC =         0.40154822
  Ewald energy   TEWEN  =      2257.36198512
  -Hartree energ DENC   =     -3966.08543418
  -exchange      EXHF   =         0.00000000
  -V(xc)+E(xc)   XCENC  =       124.41053400
  PAW double counting   =     17522.07549382   -17519.51874695
  entropy T*S    EENTRO =        -0.00000000
  eigenvalues    EBANDS =      -520.19924147
  atomic energy  EATOM  =      2050.77139797
  ---------------------------------------------------
  free energy    TOTEN  =       -50.78246345 eV

  energy without entropy =      -50.78246345  energy(sigma->0) =      -50.78246345


--------------------------------------------------------------------------------------------------------




--------------------------------------- Iteration      1(  21)  ---------------------------------------


    POTLOK:  cpu time      0.3739: real time      0.3739
    SETDIJ:  cpu time      0.0043: real time      0.0043
    TRIAL :  cpu time      1.7863: real time      1.7877
    CORREC:  cpu time      1.8172: real time      1.8181
    CHARGE:  cpu time      0.9488: real time      0.9491
    --------------------------------------------
      LOOP:  cpu time      4.9454: real time      4.9644

 eigenvalue-minimisations  :     0
 total energy-change (2. order) : 0.1136323E-06  (-0.3703522E-06)
 number of electron      34.0000000 magnetization 
 augmentation part        0.1884082 magnetization 

 Free energy of the ion-electron system (eV)
  ---------------------------------------------------
  alpha Z        PSCENC =         0.40154822
  Ewald energy   TEWEN  =      2257.36198512
  -Hartree energ DENC   =     -3966.08611084
  -exchange      EXHF   =         0.00000000
  -V(xc)+E(xc)   XCENC  =       124.41054293
  PAW double counting   =     17522.79488073   -17520.23811332
  entropy T*S    EENTRO =        -0.00000000
  eigenvalues    EBANDS =      -520.19859415
  atomic energy  EATOM  =      2050.77139797
  ---------------------------------------------------
  free energy    TOTEN  =       -50.78246333 eV

  energy without entropy =      -50.78246333  energy(sigma->0) =      -50.78246333


--------------------------------------------------------------------------------------------------------




--------------------------------------- Iteration      1(  22)  ---------------------------------------


    POTLOK:  cpu time      0.3781: real time      0.3782
    SETDIJ:  cpu time      0.0047: real time      0.0047
    TRIAL :  cpu time      1.7871: real time      1.7884
    CORREC:  cpu time      1.8132: real time      1.8142
    CHARGE:  cpu time      0.9329: real time      0.9332
    --------------------------------------------
      LOOP:  cpu time      4.9301: real time      4.9482

 eigenvalue-minimisations  :     0
 total energy-change (2. order) :-0.6281043E-06  (-0.1760720E-06)
 number of electron      34.0000000 magnetization 
 augmentation part        0.1884077 magnetization 

 Free energy of the ion-electron system (eV)
  ---------------------------------------------------
  alpha Z        PSCENC =         0.40154822
  Ewald energy   TEWEN  =      2257.36198512
  -Hartree energ DENC   =     -3966.08746443
  -exchange      EXHF   =         0.00000000
  -V(xc)+E(xc)   XCENC  =       124.41058641
  PAW double counting   =     17523.49600433   -17520.93923588
  entropy T*S    EENTRO =        -0.00000000
  eigenvalues    EBANDS =      -520.19728570
  atomic energy  EATOM  =      2050.77139797
  ---------------------------------------------------
  free energy    TOTEN  =       -50.78246396 eV

  energy without entropy =      -50.78246396  energy(sigma->0) =      -50.78246396


--------------------------------------------------------------------------------------------------------




--------------------------------------- Iteration      1(  23)  ---------------------------------------


    POTLOK:  cpu time      0.3826: real time      0.3826
    SETDIJ:  cpu time      0.0045: real time      0.0045
    TRIAL :  cpu time      1.7834: real time      1.7846
    CORREC:  cpu time      1.8240: real time      1.8248
    CHARGE:  cpu time      0.9344: real time      0.9346
    --------------------------------------------
      LOOP:  cpu time      4.9441: real time      4.9637

 eigenvalue-minimisations  :     0
 total energy-change (2. order) :-0.1449953E-06  (-0.8736482E-07)
 number of electron      34.0000000 magnetization 
 augmentation part        0.1884073 magnetization 

 Free energy of the ion-electron system (eV)
  ---------------------------------------------------
  alpha Z        PSCENC =         0.40154822
  Ewald energy   TEWEN  =      2257.36198512
  -Hartree energ DENC   =     -3966.08816302
  -exchange      EXHF   =         0.00000000
  -V(xc)+E(xc)   XCENC  =       124.41063558
  PAW double counting   =     17523.92927514   -17521.37250806
  entropy T*S    EENTRO =        -0.00000000
  eigenvalues    EBANDS =      -520.19663507
  atomic energy  EATOM  =      2050.77139797
  ---------------------------------------------------
  free energy    TOTEN  =       -50.78246411 eV

  energy without entropy =      -50.78246411  energy(sigma->0) =      -50.78246411


--------------------------------------------------------------------------------------------------------




--------------------------------------- Iteration      1(  24)  ---------------------------------------


    POTLOK:  cpu time      0.3785: real time      0.3785
    SETDIJ:  cpu time      0.0043: real time      0.0043
    TRIAL :  cpu time      1.7854: real time      1.7865
    CORREC:  cpu time      1.8138: real time      1.8145
    CHARGE:  cpu time      0.9284: real time      0.9288
    --------------------------------------------
      LOOP:  cpu time      4.9253: real time      4.9437

 eigenvalue-minimisations  :     0
 total energy-change (2. order) : 0.1550725E-06  (-0.1260005E-06)
 number of electron      34.0000000 magnetization 
 augmentation part        0.1884066 magnetization 

 Free energy of the ion-electron system (eV)
  ---------------------------------------------------
  alpha Z        PSCENC =         0.40154822
  Ewald energy   TEWEN  =      2257.36198512
  -Hartree energ DENC   =     -3966.08821145
  -exchange      EXHF   =         0.00000000
  -V(xc)+E(xc)   XCENC  =       124.41067295
  PAW double counting   =     17524.15264264   -17521.59587417
  entropy T*S    EENTRO =        -0.00000000
  eigenvalues    EBANDS =      -520.19662523
  atomic energy  EATOM  =      2050.77139797
  ---------------------------------------------------
  free energy    TOTEN  =       -50.78246395 eV

  energy without entropy =      -50.78246395  energy(sigma->0) =      -50.78246395


--------------------------------------------------------------------------------------------------------




--------------------------------------- Iteration      1(  25)  ---------------------------------------


    POTLOK:  cpu time      0.3806: real time      0.3806
    SETDIJ:  cpu time      0.0046: real time      0.0046
    TRIAL :  cpu time      1.7897: real time      1.7909
    CORREC:  cpu time      1.8118: real time      1.8127
    CHARGE:  cpu time      0.9344: real time      0.9347
    --------------------------------------------
      LOOP:  cpu time      4.9453: real time      4.9538

 eigenvalue-minimisations  :     0
 total energy-change (2. order) :-0.1460648E-06  (-0.7602859E-07)
 number of electron      34.0000000 magnetization 
 augmentation part        0.1884059 magnetization 

 Free energy of the ion-electron system (eV)
  ---------------------------------------------------
  alpha Z        PSCENC =         0.40154822
  Ewald energy   TEWEN  =      2257.36198512
  -Hartree energ DENC   =     -3966.08723868
  -exchange      EXHF   =         0.00000000
  -V(xc)+E(xc)   XCENC  =       124.41054826
  PAW double counting   =     17524.15816437   -17521.60138898
  entropy T*S    EENTRO =        -0.00000000
  eigenvalues    EBANDS =      -520.19748038
  atomic energy  EATOM  =      2050.77139797
  ---------------------------------------------------
  free energy    TOTEN  =       -50.78246410 eV

  energy without entropy =      -50.78246410  energy(sigma->0) =      -50.78246410


--------------------------------------------------------------------------------------------------------




--------------------------------------- Iteration      1(  26)  ---------------------------------------


    POTLOK:  cpu time      0.3776: real time      0.3776
    SETDIJ:  cpu time      0.0043: real time      0.0043
    TRIAL :  cpu time      1.7967: real time      1.7979
    CORREC:  cpu time      1.8623: real time      1.8631
    EDDIAG:  cpu time      0.7623: real time      0.7627
    CHARGE:  cpu time      0.9351: real time      0.9352
    --------------------------------------------
      LOOP:  cpu time      5.7692: real time      5.7718

 eigenvalue-minimisations  :     0
 total energy-change (2. order) :-0.2937668E-07  (-0.3422881E-07)
 number of electron      34.0000000 magnetization 
 augmentation part        0.1884056 magnetization 

 Free energy of the ion-electron system (eV)
  ---------------------------------------------------
  alpha Z        PSCENC =         0.40154822
  Ewald energy   TEWEN  =      2257.36198512
  -Hartree energ DENC   =     -3966.08636577
  -exchange      EXHF   =         0.00000000
  -V(xc)+E(xc)   XCENC  =       124.41054485
  PAW double counting   =     17524.14727197   -17521.59049028
  entropy T*S    EENTRO =        -0.00000000
  eigenvalues    EBANDS =      -520.19835621
  atomic energy  EATOM  =      2050.77139797
  ---------------------------------------------------
  free energy    TOTEN  =       -50.78246413 eV

  energy without entropy =      -50.78246413  energy(sigma->0) =      -50.78246413


--------------------------------------------------------------------------------------------------------


  average scaling for gradient   1.2801


 average (electrostatic) potential at core
  the test charge radii are     0.5770  0.4325  0.5955
  (the norm of the test charge is              1.0000)
       1 -90.9307       2 -90.9302       3 -49.4952       4 -49.4961       5-120.4916
       6-120.4915       7-121.8689       8-121.8680



 E-fermi :  -6.9156     XC(G=0):  -0.1580     alpha+bet : -0.0741

 Fermi energy:        -6.9156491368

 k-point     1 :       0.0000    0.0000    0.0000
  band No.  band energies     occupation 
      1     -28.8947      2.00000
      2     -28.1040      2.00000
      3     -26.8113      2.00000
      4     -26.2276      2.00000
      5     -17.3073      2.00000
      6     -15.8066      2.00000
      7     -15.6821      2.00000
      8     -12.4864      2.00000
      9     -12.1386      2.00000
     10     -11.5767      2.00000
     11     -11.4181      2.00000
     12     -10.9920      2.00000
     13      -9.6523      2.00000
     14      -8.8129      2.00000
     15      -8.6975      2.00000
     16      -8.5084      2.00000
     17      -6.9831      2.00000
     18      -3.3912      0.00000
     19      -0.9627      0.00000
     20      -0.1893      0.00000
     21       0.1074      0.00000
     22       0.1577      0.00000
     23       0.2926      0.00000
     24       0.3358      0.00000
     25       0.4142      0.00000
     26       0.4345      0.00000
     27       0.5083      0.00000
     28       0.5667      0.00000
     29       0.6074      0.00000
     30       0.6350      0.00000
     31       0.7196      0.00000
     32       0.7560      0.00000
     33       0.7825      0.00000
     34       0.7966      0.00000
     35       0.8037      0.00000
     36       0.8060      0.00000
     37       0.8143      0.00000
     38       0.8159      0.00000
     39       0.9708      0.00000
     40       1.0175      0.00000
     41       1.0637      0.00000
     42       1.0795      0.00000
     43       1.0874      0.00000
     44       1.1228      0.00000
     45       1.1501      0.00000
     46       1.1756      0.00000
     47       1.2682      0.00000
     48       1.3009      0.00000
     49       1.4177      0.00000
     50       1.4225      0.00000
     51       1.4446      0.00000
     52       1.4605      0.00000
     53       1.5746      0.00000
     54       1.6257      0.00000
     55       1.6876      0.00000
     56       1.6932      0.00000
     57       1.7129      0.00000
     58       1.7270      0.00000
     59       1.7713      0.00000
     60       1.7991      0.00000
     61       1.8385      0.00000
     62       1.8655      0.00000
     63       1.8814      0.00000
     64       1.8885      0.00000
     65       1.8976      0.00000
     66       1.9157      0.00000
     67       1.9231      0.00000
     68       1.9270      0.00000
     69       1.9344      0.00000
     70       1.9367      0.00000
     71       1.9387      0.00000
     72       1.9397      0.00000
     73       1.9432      0.00000
     74       1.9454      0.00000
     75       1.9459      0.00000
     76       1.9465      0.00000
     77       2.0720      0.00000
     78       2.1119      0.00000
     79       2.1429      0.00000
     80       2.1622      0.00000
     81       2.1633      0.00000
     82       2.1764      0.00000
     83       2.2108      0.00000
     84       2.2207      0.00000
     85       2.2371      0.00000
     86       2.2579      0.00000
     87       2.2617      0.00000
     88       2.2716      0.00000
     89       2.2813      0.00000
     90       2.2872      0.00000
     91       2.2950      0.00000
     92       2.3010      0.00000
     93       2.3026      0.00000
     94       2.3042      0.00000
     95       2.3074      0.00000
     96       2.3096      0.00000
     97       2.3162      0.00000
     98       2.3165      0.00000
     99       2.3200      0.00000
    100       2.3201      0.00000
    101       2.5797      0.00000
    102       2.6390      0.00000
    103       2.8653      0.00000
    104       2.8791      0.00000
    105       2.8970      0.00000
    106       2.9126      0.00000
    107       2.9501      0.00000
    108       2.9614      0.00000
    109       2.9697      0.00000
    110       2.9715      0.00000
    111       2.9826      0.00000
    112       2.9997      0.00000
    113       3.0969      0.00000
    114       3.1164      0.00000
    115       3.1775      0.00000
    116       3.1922      0.00000
    117       3.2201      0.00000
    118       3.2366      0.00000
    119       3.2412      0.00000
    120       3.2599      0.00000
    121       3.2652      0.00000
    122       3.2889      0.00000
    123       3.2934      0.00000
    124       3.3207      0.00000
    125       3.3475      0.00000
    126       3.3647      0.00000
    127       3.3888      0.00000
    128       3.3935      0.00000
    129       3.4003      0.00000
    130       3.4110      0.00000
    131       3.4146      0.00000
    132       3.4199      0.00000
    133       3.4211      0.00000
    134       3.4255      0.00000
    135       3.4307      0.00000
    136       3.4335      0.00000
    137       3.4359      0.00000
    138       3.4376      0.00000
    139       3.4437      0.00000
    140       3.4457      0.00000
    141       3.4461      0.00000
    142       3.4473      0.00000
    143       3.5519      0.00000
    144       3.5718      0.00000
    145       3.6093      0.00000
    146       3.6144      0.00000
    147       3.6262      0.00000
    148       3.6905      0.00000
    149       3.7034      0.00000
    150       3.7080      0.00000
    151       3.7108      0.00000
    152       3.7416      0.00000
    153       3.7483      0.00000
    154       3.7525      0.00000
    155       3.7613      0.00000
    156       3.7708      0.00000
    157       3.7772      0.00000
    158       3.7789      0.00000
    159       3.7870      0.00000
    160       3.7965      0.00000
    161       3.8089      0.00000
    162       3.8135      0.00000
    163       3.8149      0.00000
    164       3.8169      0.00000
    165       3.8206      0.00000
    166       3.8222      0.00000
    167       3.9185      0.00000
    168       3.9198      0.00000
    169       3.9811      0.00000
    170       4.0631      0.00000
    171       4.0656      0.00000
    172       4.0796      0.00000
    173       4.0812      0.00000
    174       4.0966      0.00000
    175       4.1020      0.00000
    176       4.1065      0.00000
    177       4.1159      0.00000
    178       4.1201      0.00000
    179       4.1261      0.00000
    180       4.1316      0.00000
    181       4.1327      0.00000
    182       4.1374      0.00000
    183       4.1472      0.00000
    184       4.1498      0.00000
    185       4.1578      0.00000
    186       4.1704      0.00000
    187       4.1746      0.00000
    188       4.1824      0.00000
    189       4.1831      0.00000
    190       4.1845      0.00000
    191       4.2785      0.00000
    192       4.3082      0.00000
    193       4.3599      0.00000
    194       4.4399      0.00000
    195       4.4634      0.00000
    196       4.4803      0.00000
    197       4.4853      0.00000
    198       4.5108      0.00000
    199       4.5264      0.00000
    200       4.5685      0.00000
    201       4.5781      0.00000
    202       4.6408      0.00000
    203       4.6861      0.00000
    204       4.7201      0.00000
    205       4.7378      0.00000
    206       4.7410      0.00000
    207       4.7875      0.00000
    208       4.8000      0.00000
    209       4.8334      0.00000
    210       4.8472      0.00000
    211       4.8502      0.00000
    212       4.8677      0.00000
    213       4.8918      0.00000
    214       4.8988      0.00000
    215       4.9019      0.00000
    216       4.9144      0.00000
    217       4.9190      0.00000
    218       4.9275      0.00000
    219       4.9300      0.00000
    220       4.9333      0.00000
    221       4.9348      0.00000
    222       4.9422      0.00000
    223       4.9692      0.00000
    224       4.9966      0.00000
    225       5.0401      0.00000
    226       5.0839      0.00000
    227       5.1056      0.00000
    228       5.1270      0.00000
    229       5.1376      0.00000
    230       5.1430      0.00000
    231       5.1697      0.00000
    232       5.1780      0.00000
    233       5.1790      0.00000
    234       5.1960      0.00000
    235       5.2016      0.00000
    236       5.2101      0.00000
    237       5.2114      0.00000
    238       5.2180      0.00000
    239       5.2259      0.00000
    240       5.2396      0.00000
    241       5.2418      0.00000
    242       5.2473      0.00000
    243       5.2573      0.00000
    244       5.2656      0.00000
    245       5.2663      0.00000
    246       5.2854      0.00000
    247       5.2886      0.00000
    248       5.2980      0.00000
    249       5.2997      0.00000
    250       5.3037      0.00000
    251       5.3059      0.00000
    252       5.3081      0.00000
    253       5.3167      0.00000
    254       5.3504      0.00000
    255       5.5062      0.00000
    256       5.8161      0.00000


--------------------------------------------------------------------------------------------------------


 soft charge-density along one line, spin component           1
         0         1         2         3         4         5         6         7         8         9
 total charge-density along one line

 pseudopotential strength for first ion, spin component:           1
 12.840  21.612  -0.011  -0.004  -0.001  -0.019  -0.006  -0.001
 21.612  36.375  -0.018  -0.006  -0.001  -0.032  -0.011  -0.002
 -0.011  -0.018  -3.335   0.001  -0.000  -5.983   0.001  -0.001
 -0.004  -0.006   0.001  -3.335  -0.000   0.001  -5.982  -0.001
 -0.001  -0.001  -0.000  -0.000  -3.335  -0.001  -0.001  -5.983
 -0.019  -0.032  -5.983   0.001  -0.001 -10.710   0.002  -0.002
 -0.006  -0.011   0.001  -5.982  -0.001   0.002 -10.708  -0.001
 -0.001  -0.002  -0.001  -0.001  -5.983  -0.002  -0.001 -10.710
 total augmentation occupancy for first ion, spin component:           1
  7.367  -2.726   0.023  -1.517   1.431  -0.001   0.686  -0.643
 -2.726   1.156   0.060   0.752  -0.682  -0.012  -0.322   0.297
  0.023   0.060   6.584  -0.453   1.913  -2.305   0.228  -0.837
 -1.517   0.752  -0.453   4.956  -2.444   0.227  -1.575   0.990
  1.431  -0.682   1.913  -2.444   5.529  -0.836   0.990  -1.847
 -0.001  -0.012  -2.305   0.227  -0.836   0.845  -0.107   0.356
  0.686  -0.322   0.228  -1.575   0.990  -0.107   0.540  -0.406
 -0.643   0.297  -0.837   0.990  -1.847   0.356  -0.406   0.662


------------------------ aborting loop because EDIFF is reached ----------------------------------------


    FORLOC:  cpu time      0.0131: real time      0.0131
    FORNL :  cpu time      0.1796: real time      0.1801
    FORCOR:  cpu time      0.2506: real time      0.2507
    OFIELD:  cpu time      0.0034: real time      0.0034
 WARNING: Using user supplied parameters
     VDW_S8 = 1.682
     VDW_SR = 1.094
     because the xc functional is not supported. Required parameters not
     defined in the INCAR file will be replaced with PBE defaults ones.


 ---------------------------------------------------------------------------------------------

         DFTD3 V3.0 Rev 1        
 IVDW         = 11
 DF unknown   
 parameters
 VDW_S6       =    1.0000
 VDW_S8       =    1.6820
 VDW_SR       =    1.0940
 rs18     =    1.0000
 alpha6   =   14.0000
 alpha8   =   16.0000
 k1-k3    =   16.0000    1.3333   -4.0000
 VDW_RADIUS   =   50.2022 A
 VDW_CNRADIUS =   21.1671 A
 Edisp (eV)   -0.11472

 E6    (eV) :    -0.0318
 E8    (eV) :    -0.0829
 % E8        : 72.27
    FORVDW:  cpu time      0.0760: real time      0.0806

 VOLUME and BASIS-vectors are now :
 -----------------------------------------------------------------------------
  energy-cutoff  :     1000.00
  volume of cell :     8000.00
      direct lattice vectors                 reciprocal lattice vectors
    20.000000000  0.000000000  0.000000000     0.050000000  0.000000000  0.000000000
     0.000000000 20.000000000  0.000000000     0.000000000  0.050000000  0.000000000
     0.000000000  0.000000000 20.000000000     0.000000000  0.000000000  0.050000000

  length of vectors
    20.000000000 20.000000000 20.000000000     0.050000000  0.050000000  0.050000000


 FORCES acting on ions:
    Electron-Ion                     Ewald-Force                    Non-Local-Force
 -----------------------------------------------------------------------------------------------
   0.620E+01 0.277E+02 0.393E+01   -.588E+01 -.210E+02 -.165E+01   -.417E+00 -.693E+01 -.227E+01
   -.639E+01 -.276E+02 -.400E+01   0.607E+01 0.209E+02 0.172E+01   0.420E+00 0.694E+01 0.226E+01
   0.713E+02 0.602E+02 -.526E+02   -.771E+02 -.615E+02 0.583E+02   0.576E+01 0.121E+01 -.568E+01
   -.713E+02 -.603E+02 0.526E+02   0.771E+02 0.615E+02 -.583E+02   -.577E+01 -.122E+01 0.568E+01
   -.290E+03 -.101E+03 0.270E+03   0.329E+03 0.122E+03 -.302E+03   -.383E+02 -.210E+02 0.326E+02
   0.290E+03 0.101E+03 -.270E+03   -.329E+03 -.122E+03 0.302E+03   0.383E+02 0.210E+02 -.326E+02
   0.306E+02 0.351E+03 0.105E+03   -.155E+02 -.389E+03 -.136E+03   -.153E+02 0.378E+02 0.311E+02
   -.304E+02 -.352E+03 -.105E+03   0.153E+02 0.390E+03 0.136E+03   0.153E+02 -.378E+02 -.311E+02
 -----------------------------------------------------------------------------------------------
   -.504E-01 0.303E-01 -.121E-01   -.107E-13 0.568E-13 0.000E+00   0.503E-01 -.302E-01 0.120E-01


 POSITION                                       TOTAL-FORCE (eV/Angst)
 -----------------------------------------------------------------------------------
     10.36587      9.59569      9.45312         0.019332      0.003351     -0.027302
      9.63408     10.40374     10.54674        -0.013176      0.000469      0.017263
      9.27416      8.21411     10.07710        -0.032692     -0.078207      0.000699
     10.72505     11.78589      9.92217         0.036964      0.076328     -0.006046
     11.21197     10.09969      8.74899         0.244383      0.079588     -0.228546
      8.78803      9.90032     11.25101        -0.253473     -0.090507      0.236169
      9.96469      8.32590      9.38345        -0.054689     -0.330910     -0.064266
     10.03446     11.67365     10.61543         0.053350      0.339889      0.072029
 -----------------------------------------------------------------------------------
    total drift:                               -0.000073      0.000044     -0.000098


--------------------------------------------------------------------------------------------------------



  FREE ENERGIE OF THE ION-ELECTRON SYSTEM (eV)
  ---------------------------------------------------
  free  energy   TOTEN  =       -50.89717945 eV

  energy  without entropy=      -50.89717945  energy(sigma->0) =      -50.89717945



--------------------------------------------------------------------------------------------------------


    POTLOK:  cpu time      0.4028: real time      0.4031


--------------------------------------------------------------------------------------------------------


 stress matrix after NEB project (eV)
      0.03161     -0.05438     -0.05487
     -0.05438      0.15757      0.11928
     -0.05487      0.11928      0.10478
  FORCES: max atom, RMS     0.358072    0.250675
  FORCE total and by dimension    0.709016    0.339889
  Stress total and by dimension    0.277844    0.157568
     LOOP+:  cpu time    144.4371: real time    144.8377
    4ORBIT:  cpu time      0.0000: real time      0.0000

 total amount of memory used by VASP MPI-rank0   382402. kBytes
=======================================================================

   base      :      30000. kBytes
   nonl-proj :      45957. kBytes
   fftplans  :     102640. kBytes
   grid      :     196902. kBytes
   one-center:          6. kBytes
   wavefun   :       6897. kBytes

  
  
 General timing and accounting informations for this job:
 ========================================================
  
                  Total CPU time used (sec):      202.608
                            User time (sec):      184.782
                          System time (sec):       17.826
                         Elapsed time (sec):      221.421
  
                   Maximum memory used (kb):      623080.
                   Average memory used (kb):          N/A
  
                          Minor page faults:       966304
                          Major page faults:         1204
                 Voluntary context switches:        12078
