20
Lattice="6.27146 0.0 0.0 -0.080622582 6.195025408 0.0 0.0 0.0 6.01237" Properties=species:S:1:pos:R:3:forces:R:3 stress="0.009096937135883588 0.0039254473685052535 0.0010749376676961182 0.0039254473685052535 0.0128876240808519 -0.0007551913966862449 0.0010749376676961182 -0.0007551913966862449 0.01035846471889799" free_energy=-112.07397744 energy=-112.07397744 pbc="T T T"
C        1.21309000       0.48894000       1.47726000      -1.12421600      -1.00579200      -0.16653700
C        4.94842000       5.67299000       4.52897000       1.35868400       2.26819100       0.26721900
C        0.66413000       1.84186000       1.51970000      -1.88153700       1.28638700      -0.18895800
C        5.52446000       4.34842000       4.52071000       2.14163400      -0.39337900      -0.13825900
C        1.96681000       2.40957000       1.48085000      -0.67786900       2.18314800      -0.36941900
C        4.24479000       3.75745000       4.49059000      -0.62547100      -1.70159900       0.39856200
C        2.54938000       1.12338000       1.39998000       2.09948500      -1.16341500       0.81506900
C        3.62132000       5.08329000       4.54538000      -2.21275700      -0.56209400      -0.30931600
H        1.77129000       4.35677000       1.45102000       0.35134100      -0.26085300       0.06979200
H        4.51208000       1.75274000       4.56101000      -0.55176000       0.62150700      -0.09815400
H        4.96678000       1.69580000       1.49909000       0.13857500       0.14333400       0.02373000
H        1.25729000       4.61903000       4.60860000      -0.46336200      -0.46507200      -0.25689500
O        0.64728000       5.53093000       1.48811000       0.49565600       0.58607300       0.00320600
O        5.52208000       0.64894000       4.57400000      -0.57071200      -0.90541400      -0.11031400
O        5.71234000       2.40410000       1.53053000       1.32031800      -0.74372000       0.11942700
O        0.49076000       3.87914000       4.53262000      -0.86184800       0.32303100       0.13662600
O        2.51343000       3.63040000       1.44544000      -0.93640200      -0.76941000       0.11031900
O        3.74218000       2.53129000       4.52531000       0.99210800       0.50801100      -0.09020600
O        3.71601000       0.69713000       1.44123000       0.17015500      -0.27256000      -0.32856700
O        2.43468000       5.49675000       4.57084000       0.83797800       0.32362400       0.11267500
20
Lattice="6.27146 0.0 0.0 -0.080622582 6.195025408 0.0 0.0 0.0 6.01237" Properties=species:S:1:pos:R:3:forces:R:3 stress="0.021773729279972277 -0.007796056837830498 -0.0002726228771094548 -0.007796056837830498 0.004745325765772153 1.2545433343025349e-05 -0.0002726228771094548 1.2545433343025349e-05 0.010286050730019492" free_energy=-112.14937419 energy=-112.14937419 pbc="T T T"
C        1.14953000       0.47909000       1.47424000      -0.90049200      -0.49444800       0.50597700
C        5.05626000       5.71767000       4.54178000       0.30351100       1.62300200       0.13951200
C        0.61046000       1.85208000       1.49636000      -2.35132300      -0.45309700      -0.30748100
C        5.59333000       4.36466000       4.50500000       2.54796800      -0.41562800      -0.17700400
C        1.89241000       2.37937000       1.52073000       0.71912600       1.47840000      -0.45116900
C        4.31539000       3.81968000       4.52544000      -0.99500200      -3.02281800       0.02535500
C        2.51609000       1.06234000       1.47843000       1.35361400      -0.05506400       0.08376900
C        3.68053000       5.09964000       4.59049000      -1.60430800       1.17092900      -0.12846100
H        1.60009000       4.31378000       1.53355000       1.03672800      -0.50167100      -0.19970900
H        4.49842000       1.85213000       4.53924000       0.24618900      -0.01409700      -0.10314900
H        4.87492000       1.70802000       1.42360000       0.62537000       0.02687400       0.08742200
H        1.33729000       4.51179000       4.50277000      -0.80454900      -0.31499100      -0.02137500
O        0.55542000       5.54806000       1.53128000       0.17348100      -0.33376300      -0.19140600
O        5.60650000       0.68178000       4.53420000      -0.24889100      -0.92426400       0.01141100
O        5.65481000       2.39552000       1.43331000       1.02047900      -0.37859200       0.15817200
O        0.53691000       3.81238000       4.43576000      -0.57353900       0.78294800       0.15821800
O        2.39464000       3.59610000       1.46992000      -1.09660600       0.52017300       0.40207200
O        3.79102000       2.57403000       4.50052000       0.15557700       1.62620400       0.09724100
O        3.68869000       0.62987000       1.45892000      -0.56586000       0.18898900      -0.02904300
O        2.50188000       5.54687000       4.62488000       0.95852600      -0.50908600      -0.06035100
20
Lattice="6.27146 0.0 0.0 -0.080622582 6.195025408 0.0 0.0 0.0 6.01237" Properties=species:S:1:pos:R:3:forces:R:3 stress="0.015025184918738768 -0.007012104567092182 -0.000644404609701817 -0.007012104567092182 -0.0023608633098835944 -8.520908258655824e-05 -0.000644404609701817 -8.520908258655824e-05 0.009329445833840993" free_energy=-112.2094746 energy=-112.2094746 pbc="T T T"
C        1.24486000       0.48569000       1.52722000      -0.35284400      -0.93033900       0.01517400
C        4.90716000       5.71591000       4.46495000       0.85656600       0.86074300      -0.00030200
C        0.74335000       1.84798000       1.62729000      -1.26241300       0.20073700      -0.08647000
C        5.48297000       4.37443000       4.43444000       0.71661500      -1.01745200      -0.39632600
C        2.03435000       2.38341000       1.52778000      -0.56125900       1.28938100       0.02901700
C        4.19682000       3.79116000       4.40140000      -0.79422600      -0.92032500       0.11040300
C        2.63754000       1.06659000       1.46950000       1.81273600       0.00768200       0.30305600
C        3.53405000       5.09769000       4.48932000      -0.44201500      -0.12209300       0.35652600
H        1.74319000       4.30792000       1.41903000       0.30112000      -0.17052600       0.33434500
H        4.44203000       1.86654000       4.45270000      -0.50913300       0.06820400      -0.19782600
H        5.07981000       1.74681000       1.71813000      -0.49307600      -0.67252800      -0.15671100
H        1.18151000       4.50681000       4.49627000      -0.32047300      -0.14601400      -0.09260800
O        0.63808000       5.55804000       1.52106000       0.30512300      -0.02986400      -0.10577600
O        5.50547000       0.64985000       4.46149000      -0.38100100       0.06391200       0.10222400
O        5.81900000       2.40281000       1.75799000       1.20511200       0.55945800      -0.06324300
O        0.41529000       3.81709000       4.38212000      -0.62862200       0.61224600       0.33161900
O        2.50265000       3.61724000       1.51325000      -0.11071600      -0.10298300      -0.28153900
O        3.67318000       2.56244000       4.36717000       1.09070800       0.62446100       0.20448300
O        3.82670000       0.67619000       1.48709000      -0.95023800      -0.20324900      -0.12128600
O        2.36563000       5.50705000       4.63621000       0.51803900       0.02854700      -0.28476000
20
Lattice="6.18224 0.0 0.0 -0.054402287 6.137278887 0.0 0.0 0.0 5.76274" Properties=species:S:1:pos:R:3:forces:R:3 stress="0.001826278053251693 0.004798877914072231 0.0009685698691728158 0.004798877914072231 0.0072013720898254675 -0.001263368828206534 0.0009685698691728158 -0.001263368828206534 0.007822090172394557" free_energy=-112.12182772 energy=-112.12182772 pbc="T T T"
C        1.18516000       0.52111000       1.44506000      -1.14527100      -1.02580100      -0.21890300
C        4.91355000       5.58429000       4.31352000       1.48352900       2.15021200       0.24945000
C        0.64871000       1.87111000       1.50082000      -1.92121700       1.32328200      -0.07544700
C        5.48076000       4.25931000       4.31869000       2.15319300      -0.45256900      -0.14849200
C        1.95302000       2.43053000       1.41949000      -0.72103200       2.32401000      -0.41068500
C        4.19416000       3.67749000       4.28962000      -0.65825000      -1.79564200       0.41665000
C        2.52066000       1.14272000       1.33433000       2.11782200      -1.32416200       0.79974100
C        3.59130000       5.00903000       4.33073000      -2.30528900      -0.47834700      -0.23270400
H        1.75810000       4.38167000       1.36821000       0.34824500      -0.36217700       0.07542800
H        4.46424000       1.66377000       4.37313000      -0.47547800       0.63653900      -0.13294400
H        4.87145000       1.70165000       1.49179000       0.11287900       0.13709100       0.02143300
H        1.30568000       4.54451000       4.40010000      -0.47795700      -0.41880700      -0.21310400
O        0.63066000       5.51109000       1.45377000       0.54349900       0.49588700       0.01077000
O        5.47046000       0.61394000       4.35589000      -0.57953200      -0.73383500      -0.07767800
O        5.60956000       2.42329000       1.55743000       1.33938000      -0.63406800      -0.01157300
O        0.52900000       3.78776000       4.34518000      -0.77483800       0.29805500       0.10874100
O        2.50134000       3.64594000       1.34242000      -0.91654600      -0.68357600       0.21956000
O        3.68460000       2.45611000       4.33871000       0.98053400       0.62032900      -0.12017600
O        3.68344000       0.70257000       1.36009000       0.18168200      -0.31176200      -0.30782900
O        2.41119000       5.44757000       4.36479000       0.71464600       0.23533900       0.04776200
20
Lattice="6.18224 0.0 0.0 -0.054402287 6.137278887 0.0 0.0 0.0 5.76274" Properties=species:S:1:pos:R:3:forces:R:3 stress="0.014302137294050821 -0.008620647574487439 -0.0003248892745296013 -0.008620647574487439 -0.0006100014113999485 -0.00017582955358525727 -0.0003248892745296013 -0.00017582955358525727 0.0072325796354548826" free_energy=-112.20763428 energy=-112.20763428 pbc="T T T"
C        1.07062000       0.46076000       1.41185000      -0.96454900      -0.43984600       0.51565100
C        5.06698000       5.67330000       4.34047000       0.37528900       1.62699300       0.20711700
C        0.54507000       1.83649000       1.46178000      -2.34090800      -0.43265900      -0.30518600
C        5.59701000       4.32263000       4.29741000       2.57507500      -0.45859200      -0.18840600
C        1.83199000       2.35104000       1.45678000       0.74505200       1.51454500      -0.45723400
C        4.31422000       3.78542000       4.33672000      -0.94407900      -3.16095400       0.08567700
C        2.43820000       1.02956000       1.40121000       1.38022200      -0.06007700       0.10015400
C        3.69847000       5.06934000       4.40509000      -1.72136400       1.22407000      -0.14980500
H        1.54861000       4.28914000       1.45505000       1.02240700      -0.58353300      -0.20403300
H        4.48003000       1.81274000       4.35895000       0.29697100       0.06688300      -0.08257100
H        4.73197000       1.69593000       1.38152000       0.56395700      -0.02539600       0.12424900
H        1.42380000       4.48474000       4.31489000      -0.73086300      -0.20588700      -0.05807300
O        0.48948000       5.47516000       1.45696000       0.25631400      -0.33898500      -0.18428000
O        5.59609000       0.69398000       4.34567000      -0.21359100      -0.87832500      -0.04253900
O        5.50587000       2.38987000       1.43098000       1.09516500      -0.33526000       0.08068000
O        0.62854000       3.77787000       4.22196000      -0.70713900       0.58651100       0.20561400
O        2.34492000       3.55969000       1.38820000      -1.10719800       0.58702800       0.43367000
O        3.77944000       2.54658000       4.34104000       0.07944500       1.66575500       0.01458800
O        3.60894000       0.59209000       1.37064000      -0.54917000       0.15317000       0.00929300
O        2.52407000       5.52883000       4.45116000       0.88896500      -0.50544200      -0.10456600
20
Lattice="6.18224 0.0 0.0 -0.054402287 6.137278887 0.0 0.0 0.0 5.76274" Properties=species:S:1:pos:R:3:forces:R:3 stress="0.010221863050168908 -0.008414359456367872 -4.418988461125347e-05 -0.008414359456367872 -0.006069617964556433 -0.00028233466530932914 -4.418988461125347e-05 -0.00028233466530932914 0.00706377802114537" free_energy=-112.30218266 energy=-112.30218266 pbc="T T T"
C        1.17876000       0.49273000       1.44146000      -0.37050900      -0.91198200      -0.01042700
C        4.91299000       5.65058000       4.29389000       0.86483000       0.74862700       0.00740000
C        0.68789000       1.85646000       1.52782000      -1.27265100       0.26870300      -0.04964700
C        5.47242000       4.30334000       4.28129000       0.88246500      -0.93458100      -0.32100600
C        1.98411000       2.37815000       1.43099000      -0.48787300       1.39501800       0.00093200
C        4.18026000       3.73697000       4.24497000      -0.85439400      -0.99128600       0.10107900
C        2.56909000       1.05613000       1.39151000       1.85685700      -0.04660200       0.30766700
C        3.53962000       5.05387000       4.32387000      -0.48898000      -0.09786100       0.33094900
H        1.70129000       4.30917000       1.31685000       0.37510100      -0.30206200       0.35545000
H        4.41438000       1.81475000       4.29895000      -0.54992700       0.10871800      -0.23542100
H        4.94270000       1.73950000       1.63133000      -0.24352400      -0.37105700      -0.15267300
H        1.25421000       4.44124000       4.36117000      -0.28991300      -0.00204500      -0.09125900
O        0.59397000       5.50913000       1.42933000       0.26084500      -0.11937500      -0.08537600
O        5.49162000       0.63799000       4.27988000      -0.31796500       0.17290600       0.12820800
O        5.68033000       2.42043000       1.65176000       0.87218500       0.22178400      -0.10010100
O        0.49509000       3.74421000       4.25910000      -0.83406700       0.43776200       0.24975500
O        2.46376000       3.60556000       1.40307000      -0.19942200      -0.02771700      -0.24996800
O        3.64123000       2.51433000       4.21223000       1.18156100       0.64981800       0.23995900
O        3.75250000       0.64608000       1.42398000      -0.88292600      -0.16687200      -0.10819400
O        2.37886000       5.48521000       4.47285000       0.49830600      -0.03189700      -0.31732700
20
Lattice="6.14208 0.0 0.0 -0.034820404 6.10870076 0.0 0.0 0.0 5.60526" Properties=species:S:1:pos:R:3:forces:R:3 stress="-0.0032351988742738247 0.004813433113353791 0.0010035160787686362 0.004813433113353791 0.003687627146281724 -0.0014683711954461694 0.0010035160787686362 -0.0014683711954461694 0.004948611718002171" free_energy=-112.13557174 energy=-112.13557174 pbc="T T T"
C        1.20579000       0.52594000       1.44449000      -1.14514700      -1.04556300      -0.25342100
C        4.86979000       5.55000000       4.15489000       1.58029900       2.06531600       0.30120400
C        0.67849000       1.87522000       1.48530000      -1.87112600       1.37071700      -0.10386800
C        5.43316000       4.22491000       4.18077000       2.12707400      -0.42061600      -0.08076800
C        1.98619000       2.42802000       1.41835000      -0.76296100       2.38458200      -0.46841100
C        4.14322000       3.64932000       4.12834000      -0.65281500      -1.86114500       0.42268300
C        2.54541000       1.13656000       1.34885000       2.10561800      -1.35127800       0.80554500
C        3.55034000       4.98425000       4.15674000      -2.37676900      -0.42983400      -0.23411900
H        1.78002000       4.38073000       1.34854000       0.35792800      -0.40636800       0.09853500
H        4.41862000       1.63217000       4.21924000      -0.42946700       0.58985300      -0.15620100
H        4.87147000       1.69631000       1.46630000       0.07492100       0.13944800       0.03543500
H        1.29176000       4.52046000       4.26549000      -0.47257700      -0.37843900      -0.16799300
O        0.65914000       5.49212000       1.44164000       0.56602000       0.44739300      -0.00713500
O        5.41023000       0.60536000       4.20837000      -0.52348900      -0.60570700      -0.06622300
O        5.60275000       2.42806000       1.51751000       1.27766900      -0.61089600      -0.00138500
O        0.51874000       3.75502000       4.24931000      -0.77370500       0.26514800       0.01356600
O        2.53040000       3.64446000       1.33368000      -0.90734100      -0.69328200       0.19094000
O        3.63203000       2.42963000       4.17016000       0.94440100       0.71029200      -0.04785500
O        3.70448000       0.68650000       1.38696000       0.18140300      -0.31920900      -0.36331200
O        2.37444000       5.43843000       4.18540000       0.70006400       0.14958800       0.08278400
20
Lattice="6.14208 0.0 0.0 -0.034820404 6.10870076 0.0 0.0 0.0 5.60526" Properties=species:S:1:pos:R:3:forces:R:3 stress="0.009388765136573388 -0.008548015132789535 1.0535667404490939e-05 -0.008548015132789535 -0.0040587410373976165 -0.00036285637454234906 1.0535667404490939e-05 -0.00036285637454234906 0.004601621259657817" free_energy=-112.23133815 energy=-112.23133815 pbc="T T T"
C        1.07480000       0.50581000       1.38847000      -1.03373000      -0.43188500       0.50753500
C        5.04453000       5.59718000       4.20273000       0.40462800       1.62936000       0.21720500
C        0.55275000       1.88177000       1.43804000      -2.32814400      -0.46318800      -0.34430100
C        5.56728000       4.24578000       4.16340000       2.63661100      -0.43379000      -0.17885300
C        1.84130000       2.39286000       1.43862000       0.72754800       1.50471500      -0.45715700
C        4.28193000       3.71479000       4.20185000      -0.91138900      -3.17772100       0.11978400
C        2.44050000       1.06980000       1.38644000       1.39936600      -0.09178900       0.09392900
C        3.67656000       5.00217000       4.25516000      -1.75121600       1.28508100      -0.13730700
H        1.55907000       4.33312000       1.43601000       0.98525900      -0.56697300      -0.22431700
H        4.44012000       1.74065000       4.23602000       0.32120500       0.08913800      -0.07112500
H        4.70710000       1.72919000       1.34954000       0.50655000      -0.05156200       0.13939500
H        1.43172000       4.42169000       4.17878000      -0.71851300      -0.15799000      -0.05245900
O        0.50739000       5.49293000       1.42550000       0.29533000      -0.33578500      -0.17604000
O        5.55968000       0.64377000       4.22149000      -0.22235300      -0.84588500      -0.06035100
O        5.47377000       2.43197000       1.39785000       1.16005900      -0.28478800       0.08465400
O        0.64003000       3.70593000       4.09389000      -0.76028700       0.51053100       0.22272500
O        2.35734000       3.59857000       1.37121000      -1.05591200       0.56393000       0.43216000
O        3.74231000       2.47967000       4.22231000       0.03137400       1.66638400      -0.02484400
O        3.60985000       0.62808000       1.35958000      -0.54281900       0.10694300      -0.02617500
O        2.50546000       5.47198000       4.28960000       0.85643100      -0.51472500      -0.06445700
20
Lattice="6.14208 0.0 0.0 -0.034820404 6.10870076 0.0 0.0 0.0 5.60526" Properties=species:S:1:pos:R:3:forces:R:3 stress="0.0063367046230712295 -0.008639116199990929 0.00028026248427953594 -0.008639116199990929 -0.008841609480561957 -0.00023175971686229712 0.00028026248427953594 -0.00023175971686229712 0.004361354365856941" free_energy=-112.34997562 energy=-112.34997562 pbc="T T T"
C        1.08814000       0.51286000       1.37046000      -0.36349500      -0.86183000      -0.00827200
C        4.99028000       5.60203000       4.21063000       0.80505300       0.55384300      -0.06818100
C        0.59787000       1.87680000       1.43234000      -1.22679200       0.26973500       0.00791400
C        5.53817000       4.24976000       4.21941000       0.89493300      -0.81450600      -0.27162900
C        1.89645000       2.39529000       1.34449000      -0.45667300       1.34303300      -0.05702700
C        4.24339000       3.69346000       4.18059000      -0.86286700      -1.07337500       0.08634400
C        2.47482000       1.07073000       1.33220000       1.88414200      -0.06492400       0.35607300
C        3.61418000       5.01617000       4.21822000      -0.61732500      -0.02708500       0.34769600
H        1.61956000       4.32943000       1.22080000       0.37614800      -0.33878300       0.39931200
H        4.46588000       1.76804000       4.23288000      -0.52882200       0.16253600      -0.21408000
H        4.81217000       1.75007000       1.55075000      -0.10460200      -0.19110200      -0.14582700
H        1.35766000       4.38560000       4.27767000      -0.22021200       0.13626000      -0.09204500
O        0.52521000       5.49883000       1.36051000       0.21924300      -0.14310100      -0.07435800
O        5.55555000       0.61302000       4.19341000      -0.29375000       0.30567100       0.11643000
O        5.55251000       2.44509000       1.54484000       0.66939100       0.03297700      -0.08165400
O        0.59947000       3.68827000       4.21994000      -0.94301300       0.24224000       0.13255600
O        2.38007000       3.61656000       1.29890000      -0.13961500      -0.00163800      -0.16317600
O        3.69589000       2.47382000       4.16449000       1.15451700       0.70445800       0.15273800
O        3.65471000       0.65294000       1.39188000      -0.80669800      -0.14734000      -0.11711300
O        2.45231000       5.45861000       4.32719000       0.56043900      -0.08706600      -0.30569800
20
Lattice="6.13214 0.0 0.0 -0.027428549 6.103738372 0.0 0.0 0.0 5.34558" Properties=species:S:1:pos:R:3:forces:R:3 stress="-0.009360297613450235 0.004425379766470251 0.0010932315309440822 0.004425379766470251 -0.0018395974337263282 -0.0011546105316880182 0.0010932315309440822 -0.0011546105316880182 -0.002013835402484485" free_energy=-112.12025846 energy=-112.12025846 pbc="T T T"
C        1.21479000       0.47192000       1.37389000      -1.10675100      -0.99759400      -0.23432100
C        4.85236000       5.60100000       3.96051000       1.61670000       1.99427500       0.31139700
C        0.68995000       1.81833000       1.39024000      -1.80616000       1.43918300      -0.19268800
C        5.42117000       4.28178000       4.01808000       2.05255900      -0.43574300       0.02331900
C        1.99842000       2.37071000       1.33645000      -0.81830600       2.45518400      -0.48603000
C        4.13462000       3.70145000       3.93466000      -0.61482000      -1.99344200       0.44066100
C        2.55523000       1.07924000       1.29443000       2.12181000      -1.39755200       0.84215200
C        3.53784000       5.03238000       3.94803000      -2.40924100      -0.39356100      -0.26304900
H        1.78095000       4.32559000       1.27097000       0.37170000      -0.45580100       0.09566900
H        4.43307000       1.67375000       4.02734000      -0.37847200       0.51937900      -0.19520600
H        4.87917000       1.64145000       1.36718000       0.03710900       0.11138000       0.05813900
H        1.28467000       4.56564000       4.11863000      -0.46240000      -0.33098500      -0.15712800
O        0.67165000       5.43560000       1.37248000       0.53370900       0.39006400       0.00460700
O        5.38486000       0.66204000       4.01303000      -0.41988100      -0.52730800      -0.03298000
O        5.60887000       2.37268000       1.38702000       1.19134500      -0.53330400       0.10458500
O        0.50886000       3.81069000       4.15076000      -0.76876800       0.18812900      -0.21192600
O        2.53509000       3.58910000       1.24729000      -0.91597500      -0.66409700       0.24556200
O        3.63834000       2.48004000       3.97072000       0.82104700       0.78133300      -0.03976900
O        3.71205000       0.62531000       1.35860000       0.19360900      -0.29061200      -0.42611300
O        2.35931000       5.48317000       3.97118000       0.76118500       0.14107300       0.11312000
20
Lattice="6.13214 0.0 0.0 -0.027428549 6.103738372 0.0 0.0 0.0 5.34558" Properties=species:S:1:pos:R:3:forces:R:3 stress="0.003557984760228003 -0.008558176309646474 0.0007982266021092099 -0.008558176309646474 -0.009715202305366209 -0.000685723400115164 0.0007982266021092099 -0.000685723400115164 -0.0025157026682785058" free_energy=-112.22223655 energy=-112.22223655 pbc="T T T"
C        1.08491000       0.55202000       1.35502000      -1.11063700      -0.37763400       0.46752100
C        5.03796000       5.54672000       3.96523000       0.38772500       1.58991000       0.21147700
C        0.55533000       1.92529000       1.38305000      -2.20563400      -0.57711200      -0.42032700
C        5.56042000       4.19450000       3.96245000       2.66372700      -0.34501800      -0.08736800
C        1.84308000       2.44099000       1.39250000       0.66037600       1.48555900      -0.48271100
C        4.27544000       3.66564000       3.99338000      -0.90065100      -3.16331600       0.17991100
C        2.44353000       1.12097000       1.35340000       1.45782000      -0.15573800       0.05198400
C        3.67196000       4.95105000       4.02487000      -1.68369500       1.32811200      -0.09942100
H        1.55648000       4.38327000       1.39265000       0.96355200      -0.52075000      -0.27244500
H        4.42652000       1.69047000       4.01834000       0.33867900       0.08575100      -0.04358100
H        4.70892000       1.74959000       1.27659000       0.33376900      -0.12913700       0.12317200
H        1.44055000       4.38143000       3.99937000      -0.72940000      -0.14532400      -0.01409700
O        0.52481000       5.53439000       1.39190000       0.30727600      -0.39978800      -0.21552600
O        5.54627000       0.59712000       3.96893000      -0.25268600      -0.79364500       0.01137500
O        5.46493000       2.45934000       1.30218000       1.29255000      -0.09262200       0.18967400
O        0.64393000       3.65862000       3.94456000      -0.73614700       0.48016800       0.11472000
O        2.35469000       3.64582000       1.31524000      -0.98113900       0.54090800       0.47974600
O        3.73378000       2.43419000       4.03602000      -0.01049500       1.61376500      -0.08887400
O        3.61278000       0.67958000       1.31691000      -0.54203200       0.02657600      -0.01444700
O        2.50205000       5.41939000       4.07111000       0.74704100      -0.45066200      -0.09078600
20
Lattice="6.13214 0.0 0.0 -0.027428549 6.103738372 0.0 0.0 0.0 5.34558" Properties=species:S:1:pos:R:3:forces:R:3 stress="0.0013821634713994699 -0.008551316891117128 0.00042115831128722455 -0.008551316891117128 -0.012461959399975785 -0.00010376508921780917 0.00042115831128722455 -0.00010376508921780917 -0.0023964024628463734" free_energy=-112.36547256 energy=-112.36547256 pbc="T T T"
C        1.09685000       0.49514000       1.31213000      -0.35666700      -0.81582700      -0.00221700
C        4.98617000       5.61519000       4.03160000       0.80332800       0.43928200      -0.11189100
C        0.59899000       1.85492000       1.32800000      -1.33123100       0.31518800       0.02633300
C        5.53087000       4.26301000       4.05870000       0.86572100      -0.73602100      -0.29275300
C        1.89545000       2.37924000       1.26821000      -0.39092600       1.29751700      -0.12348500
C        4.23757000       3.70721000       4.00573000      -0.85689900      -1.09788200       0.11288400
C        2.47520000       1.05689000       1.28184000       1.88165600      -0.07107700       0.36624800
C        3.61046000       5.02975000       4.00712000      -0.69541100       0.04607000       0.35755600
H        1.61120000       4.31946000       1.14911000       0.36915800      -0.37546400       0.42134400
H        4.46782000       1.78245000       4.06316000      -0.55734400       0.18401800      -0.18385200
H        4.79444000       1.71423000       1.42447000       0.09458700       0.02719900      -0.14071300
H        1.35809000       4.40165000       4.08659000      -0.14536000       0.24606100      -0.08660800
O        0.54849000       5.47259000       1.31695000       0.14636300      -0.16612800      -0.07497100
O        5.55287000       0.62663000       4.02514000      -0.33606700       0.36750900       0.08311400
O        5.54199000       2.42241000       1.38430000       0.41899800      -0.19895400       0.03775200
O        0.60087000       3.70744000       4.07915000      -0.99382400       0.03548500       0.02497700
O        2.37162000       3.59870000       1.21176000      -0.05289700       0.05111700      -0.06165700
O        3.69293000       2.48615000       4.00670000       1.19389800       0.70390500       0.03936100
O        3.65387000       0.63549000       1.34716000      -0.70318100      -0.13831300      -0.11794700
O        2.44521000       5.47506000       4.07594000       0.64609900      -0.11368700      -0.27347400
20