 vasp.6.4.1 05Apr23 (build Jun  6 2023 14:46:38) gamma-only                      
 executed on        HPECrayEX_GCC date 2024.08.21  19:21:26
 running  512 mpi-ranks, with    1 threads/rank, on    4 nodes
 distrk:  each k-point on  512 cores,    1 groups
 distr:  one band on NCORE= 128 cores,    4 groups


--------------------------------------------------------------------------------------------------------


 INCAR:
   ALGO = Conjugate
   NPAR = 4
   ISMEAR = 0
   SIGMA = 0.01
   PREC = Accurate
   EDIFF = 1E-7
   ENCUT = 1000
   ISIF = 0
   GGA = OR
   LUSE_VDW = .TRUE.
   AGGAC = 0.0000
   LASPH = .TRUE.
   LWAVE = .FALSE.
   LCHARG = .FALSE.

 POTCAR:    PAW_PBE C_h 06Feb2004                 
 POTCAR:    PAW_PBE H_h 06Feb2004                 
 POTCAR:    PAW_PBE N_h 06Feb2004                 
 POTCAR:    PAW_PBE O_h 06Feb2004                 
 -----------------------------------------------------------------------------
|                                                                             |
|               ----> ADVICE to this user running VASP <----                  |
|                                                                             |
|     You have switched on vdW-DFT.                                           |
|     This routine was written and supplied by Jiri Klimes. We recommend      |
|     that you carefully read and cite the following publications:            |
|       J. Klimes, D.R. Bowler, A. Michelides                                 |
|          J. Phys.: Cond Matt. 22 022201 (2010)                              |
|       J. Klimes, D.R. Bowler, A. Michelides                                 |
|          Phys. Rev. B. 83, 195131 (2011)                                    |
|     and references therein.                                                 |
|                                                                             |
 -----------------------------------------------------------------------------

 POTCAR:    PAW_PBE C_h 06Feb2004                 
   VRHFIN =C: s2p2                                                                                  
   LEXCH  = PE                                                                                      
   EATOM  =   147.1560 eV,   10.8157 Ry                                                             
                                                                                                    
   TITEL  = PAW_PBE C_h 06Feb2004                                                                   
   LULTRA =        F    use ultrasoft PP ?                                                          
   IUNSCR =        1    unscreen: 0-lin 1-nonlin 2-no                                               
   RPACOR =    0.800    partial core radius                                                         
   POMASS =   12.011; ZVAL   =    4.000    mass and valenz                                          
   RCORE  =    1.100    outmost cutoff radius                                                       
   RWIGS  =    1.630; RWIGS  =    0.863    wigner-seitz radius (au A)                               
   ENMAX  =  700.000; ENMIN  =  500.000 eV                                                          
   ICORE  =        2    local potential                                                             
   LCOR   =        T    correct aug charges                                                         
   LPAW   =        T    paw PP                                                                      
   EAUG   =  946.768                                                                                
   DEXC   =    0.000                                                                                
   RMAX   =    1.128    core radius for proj-oper                                                   
   RAUG   =    1.300    factor for augmentation sphere                                              
   RDEP   =    1.162    radius for radial grids                                                     
   RDEPT  =    1.088    core radius for aug-charge                                                  
                                                                                                    
   Atomic configuration                                                                             
    4 entries                                                                                       
     n  l   j            E        occ.                                                              
     1  0  0.50      -273.3789   2.0000                                                             
     2  0  0.50       -13.7508   2.0000                                                             
     2  1  0.50        -5.2854   2.0000                                                             
     3  2  1.50        -5.4423   0.0000                                                             
   Description                                                                                      
     l       E           TYP  RCUT    TYP  RCUT                                                     
     0    -13.7508458     23  1.100                                                                 
     0     -8.2022199     23  1.100                                                                 
     1     -5.2854383     23  1.100                                                                 
     1      1.1560700     23  1.100                                                                 
     2     -5.4423304      7  1.100                                                                 
  local pseudopotential read in
  partial core-charges read in
  partial kinetic energy density read in
  atomic valenz-charges read in
  non local Contribution for L=           0  read in
    real space projection operators read in
  non local Contribution for L=           0  read in
    real space projection operators read in
  non local Contribution for L=           1  read in
    real space projection operators read in
  non local Contribution for L=           1  read in
    real space projection operators read in
    PAW grid and wavefunctions read in

   number of l-projection  operators is LMAX  =           4
   number of lm-projection operators is LMMAX =           8

 POTCAR:    PAW_PBE H_h 06Feb2004                 
   VRHFIN =H: ultrasoft test                                                                        
   LEXCH  = PE                                                                                      
   EATOM  =    12.4884 eV,    0.9179 Ry                                                             
                                                                                                    
   TITEL  = PAW_PBE H_h 06Feb2004                                                                   
   LULTRA =        F    use ultrasoft PP ?                                                          
   IUNSCR =        0    unscreen: 0-lin 1-nonlin 2-no                                               
   RPACOR =    0.000    partial core radius                                                         
   POMASS =    1.000; ZVAL   =    1.000    mass and valenz                                          
   RCORE  =    0.800    outmost cutoff radius                                                       
   RWIGS  =    0.700; RWIGS  =    0.370    wigner-seitz radius (au A)                               
   ENMAX  =  700.000; ENMIN  =  350.000 eV                                                          
   RCLOC  =    0.701    cutoff for local pot                                                        
   LCOR   =        T    correct aug charges                                                         
   LPAW   =        T    paw PP                                                                      
   EAUG   = 1000.000                                                                                
   RMAX   =    0.819    core radius for proj-oper                                                   
   RAUG   =    1.000    factor for augmentation sphere                                              
   RDEP   =    0.817    radius for radial grids                                                     
   RDEPT  =    0.817    core radius for aug-charge                                                  
                                                                                                    
   Atomic configuration                                                                             
    2 entries                                                                                       
     n  l   j            E        occ.                                                              
     1  0  0.50        -6.4927   1.0000                                                             
     2  1  0.50        -3.4015   0.0000                                                             
   Description                                                                                      
     l       E           TYP  RCUT    TYP  RCUT                                                     
     0     -6.4927493     23  0.800                                                                 
     0      6.8029130     23  0.800                                                                 
     1     -6.8029130     23  0.800                                                                 
  local pseudopotential read in
  atomic valenz-charges read in
  non local Contribution for L=           0  read in
    real space projection operators read in
  non local Contribution for L=           0  read in
    real space projection operators read in
  non local Contribution for L=           1  read in
    real space projection operators read in
    PAW grid and wavefunctions read in

   number of l-projection  operators is LMAX  =           3
   number of lm-projection operators is LMMAX =           5

 POTCAR:    PAW_PBE N_h 06Feb2004                 
   VRHFIN =N: s2p3                                                                                  
   LEXCH  = PE                                                                                      
   EATOM  =   264.5486 eV,   19.4438 Ry                                                             
                                                                                                    
   TITEL  = PAW_PBE N_h 06Feb2004                                                                   
   LULTRA =        F    use ultrasoft PP ?                                                          
   IUNSCR =        1    unscreen: 0-lin 1-nonlin 2-no                                               
   RPACOR =    0.800    partial core radius                                                         
   POMASS =   14.001; ZVAL   =    5.000    mass and valenz                                          
   RCORE  =    1.100    outmost cutoff radius                                                       
   RWIGS  =    1.480; RWIGS  =    0.783    wigner-seitz radius (au A)                               
   ENMAX  =  700.000; ENMIN  =  500.000 eV                                                          
   ICORE  =        2    local potential                                                             
   LCOR   =        T    correct aug charges                                                         
   LPAW   =        T    paw PP                                                                      
   EAUG   =  904.640                                                                                
   DEXC   =    0.000                                                                                
   RMAX   =    1.127    core radius for proj-oper                                                   
   RAUG   =    1.300    factor for augmentation sphere                                              
   RDEP   =    1.115    radius for radial grids                                                     
   RDEPT  =    1.106    core radius for aug-charge                                                  
                                                                                                    
   Atomic configuration                                                                             
    4 entries                                                                                       
     n  l   j            E        occ.                                                              
     1  0  0.50      -384.7179   2.0000                                                             
     2  0  0.50       -18.5828   2.0000                                                             
     2  1  0.50        -7.0898   3.0000                                                             
     3  2  1.50        -6.8029   0.0000                                                             
   Description                                                                                      
     l       E           TYP  RCUT    TYP  RCUT                                                     
     0    -18.5828117     23  1.100                                                                 
     0    -15.0750597     23  1.100                                                                 
     1     -7.0897851     23  1.100                                                                 
     1     -1.9663412     23  1.100                                                                 
     2     -6.8029130      7  1.100                                                                 
  local pseudopotential read in
  partial core-charges read in
  partial kinetic energy density read in
  kinetic energy density of atom read in
  atomic valenz-charges read in
  non local Contribution for L=           0  read in
    real space projection operators read in
  non local Contribution for L=           0  read in
    real space projection operators read in
  non local Contribution for L=           1  read in
    real space projection operators read in
  non local Contribution for L=           1  read in
    real space projection operators read in
    PAW grid and wavefunctions read in

   number of l-projection  operators is LMAX  =           4
   number of lm-projection operators is LMMAX =           8

 POTCAR:    PAW_PBE O_h 06Feb2004                 
   VRHFIN =O: s2p4                                                                                  
   LEXCH  = PE                                                                                      
   EATOM  =   432.3788 eV,   31.7789 Ry                                                             
                                                                                                    
   TITEL  = PAW_PBE O_h 06Feb2004                                                                   
   LULTRA =        F    use ultrasoft PP ?                                                          
   IUNSCR =        1    unscreen: 0-lin 1-nonlin 2-no                                               
   RPACOR =    0.800    partial core radius                                                         
   POMASS =   16.000; ZVAL   =    6.000    mass and valenz                                          
   RCORE  =    1.100    outmost cutoff radius                                                       
   RWIGS  =    1.400; RWIGS  =    0.741    wigner-seitz radius (au A)                               
   ENMAX  =  700.000; ENMIN  =  500.000 eV                                                          
   ICORE  =        2    local potential                                                             
   LCOR   =        T    correct aug charges                                                         
   LPAW   =        T    paw PP                                                                      
   EAUG   =  888.804                                                                                
   DEXC   =    0.000                                                                                
   RMAX   =    1.128    core radius for proj-oper                                                   
   RAUG   =    1.300    factor for augmentation sphere                                              
   RDEP   =    1.125    radius for radial grids                                                     
   RDEPT  =    1.088    core radius for aug-charge                                                  
                                                                                                    
   Atomic configuration                                                                             
    4 entries                                                                                       
     n  l   j            E        occ.                                                              
     1  0  0.50      -514.6923   2.0000                                                             
     2  0  0.50       -23.9615   2.0000                                                             
     2  1  0.50        -9.0305   4.0000                                                             
     3  2  1.50        -9.5241   0.0000                                                             
   Description                                                                                      
     l       E           TYP  RCUT    TYP  RCUT                                                     
     0    -23.9615319     23  1.100                                                                 
     0    -25.3221145     23  1.100                                                                 
     1     -9.0304911     23  1.100                                                                 
     1     -5.4802209     23  1.100                                                                 
     2     -9.5240782      7  1.100                                                                 
  local pseudopotential read in
  partial core-charges read in
  partial kinetic energy density read in
  atomic valenz-charges read in
  non local Contribution for L=           0  read in
    real space projection operators read in
  non local Contribution for L=           0  read in
    real space projection operators read in
  non local Contribution for L=           1  read in
    real space projection operators read in
  non local Contribution for L=           1  read in
    real space projection operators read in
    PAW grid and wavefunctions read in

   number of l-projection  operators is LMAX  =           4
   number of lm-projection operators is LMMAX =           8

 -----------------------------------------------------------------------------
|                                                                             |
|               ----> ADVICE to this user running VASP <----                  |
|                                                                             |
|     You enforced a specific xc type in the INCAR file but a different       |
|     type was found in the POTCAR file.                                      |
|     I HOPE YOU KNOW WHAT YOU ARE DOING!                                     |
|                                                                             |
 -----------------------------------------------------------------------------

  PAW_PBE C_h 06Feb2004                 :
 energy of atom  1       EATOM= -147.1560
 kinetic energy error for atom=    0.0031 (will be added to EATOM!!)
  PAW_PBE H_h 06Feb2004                 :
 energy of atom  2       EATOM=  -12.4884
 kinetic energy error for atom=    0.0006 (will be added to EATOM!!)
  PAW_PBE N_h 06Feb2004                 :
 energy of atom  3       EATOM= -264.5486
 kinetic energy error for atom=    0.0081 (will be added to EATOM!!)
  PAW_PBE O_h 06Feb2004                 :
 energy of atom  4       EATOM= -432.3788
 kinetic energy error for atom=    0.0171 (will be added to EATOM!!)


 POSCAR:  C  H  N  O
  positions in cartesian coordinates
  No initial velocities read in
 exchange correlation table for  LEXCH =       41
   RHO(1)=    0.500       N(1)  =     2000
   RHO(2)=  100.500       N(2)  =     4000

 VTST: version 4.1, (05/19/21)

 CHAIN: initializing optimizer
 
 OPT: Using VASP Dynamics algorithm
 CHAIN: Read ICHAIN            0

 POSCAR:  C  H  N  O
  positions in cartesian coordinates
  No initial velocities read in



--------------------------------------------------------------------------------------------------------


 ion  position               nearest neighbor table
   1  0.529  0.499  0.501-   4 1.11   6 1.22   5 1.36
   2  0.433  0.475  0.530-   5 1.01
   3  0.440  0.544  0.478-   5 1.01
   4  0.547  0.456  0.531-   1 1.11
   5  0.462  0.506  0.503-   2 1.01   3 1.01   1 1.36
   6  0.567  0.535  0.469-   1 1.22

  LATTYP: Found a simple cubic cell.
 ALAT       =    20.0000000000
  
  Lattice vectors:
  
 A1 = (  20.0000000000,   0.0000000000,   0.0000000000)
 A2 = (   0.0000000000,  20.0000000000,   0.0000000000)
 A3 = (   0.0000000000,   0.0000000000,  20.0000000000)


Analysis of symmetry for initial positions (statically):
=====================================================================
 Subroutine PRICEL returns:
 Original cell was already a primitive cell.
 

 Routine SETGRP: Setting up the symmetry group for a 
 simple cubic supercell.


 Subroutine GETGRP returns: Found  1 space group operations
 (whereof  1 operations were pure point group operations)
 out of a pool of 48 trial point group operations.


The static configuration has the point symmetry C_1 .


Analysis of symmetry for dynamics (positions and initial velocities):
=====================================================================
 Subroutine PRICEL returns:
 Original cell was already a primitive cell.
 

 Routine SETGRP: Setting up the symmetry group for a 
 simple cubic supercell.


 Subroutine GETGRP returns: Found  1 space group operations
 (whereof  1 operations were pure point group operations)
 out of a pool of 48 trial point group operations.


The dynamic configuration has the point symmetry C_1 .


 Subroutine INISYM returns: Found  1 space group operations
 (whereof  1 operations are pure point group operations),
 and found     1 'primitive' translations


----------------------------------------------------------------------------------------

                                     Primitive cell                                     

  volume of cell :    8000.0000

  direct lattice vectors                    reciprocal lattice vectors
    20.000000000  0.000000000  0.000000000     0.050000000  0.000000000  0.000000000
     0.000000000 20.000000000  0.000000000     0.000000000  0.050000000  0.000000000
     0.000000000  0.000000000 20.000000000     0.000000000  0.000000000  0.050000000

  length of vectors
    20.000000000 20.000000000 20.000000000     0.050000000  0.050000000  0.050000000

  position of ions in fractional coordinates (direct lattice)
     0.529379500  0.499056500  0.500579000
     0.432965000  0.474775000  0.530198500
     0.439695500  0.544186000  0.477757500
     0.547099000  0.455814000  0.530648500
     0.461711500  0.506123000  0.502915500
     0.567035000  0.535373000  0.469351500

  ion indices of the primitive-cell ions
   primitive index   ion index
                 1           1
                 2           2
                 3           3
                 4           4
                 5           5
                 6           6

----------------------------------------------------------------------------------------



 KPOINTS: auto                                    

Automatic generation of k-mesh.
 Grid dimensions read from file:
 generate k-points for:    1    1    1

 Generating k-lattice:

  Cartesian coordinates                     Fractional coordinates (reciprocal lattice)
     0.050000000  0.000000000  0.000000000     1.000000000  0.000000000  0.000000000
     0.000000000  0.050000000  0.000000000     0.000000000  1.000000000  0.000000000
     0.000000000  0.000000000  0.050000000     0.000000000  0.000000000  1.000000000

  Length of vectors
     0.050000000  0.050000000  0.050000000

  Shift w.r.t. Gamma in fractional coordinates (k-lattice)
     0.000000000  0.000000000  0.000000000

 
 Subroutine IBZKPT returns following result:
 ===========================================
 
 Found      1 irreducible k-points:
 
 Following reciprocal coordinates:
            Coordinates               Weight
  0.000000  0.000000  0.000000      1.000000
 
 Following cartesian coordinates:
            Coordinates               Weight
  0.000000  0.000000  0.000000      1.000000
 


--------------------------------------------------------------------------------------------------------




 Dimension of arrays:
   k-points           NKPTS =      1   k-points in BZ     NKDIM =      1   number of bands    NBANDS=     16
   number of dos      NEDOS =    301   number of ions     NIONS =      6
   non local maximal  LDIM  =      4   non local SUM 2l+1 LMDIM =      8
   total plane-waves  NPLWV = ******
   max r-space proj   IRMAX =      1   max aug-charges    IRDMAX=   8641
   dimension x,y,z NGX =   210 NGY =  210 NGZ =  210
   dimension x,y,z NGXF=   420 NGYF=  420 NGZF=  420
   support grid    NGXF=   420 NGYF=  420 NGZF=  420
   ions per type =               1   3   1   1
   NGX,Y,Z   is equivalent  to a cutoff of  17.46, 17.46, 17.46 a.u.
   NGXF,Y,Z  is equivalent  to a cutoff of  34.91, 34.91, 34.91 a.u.

 SYSTEM =  unknown system                          
 POSCAR =   C  H  N  O                             

 Startparameter for this run:
   NWRITE =      2    write-flag & timer
   PREC   = accura    normal or accurate (medium, high low for compatibility)
   ISTART =      0    job   : 0-new  1-cont  2-samecut
   ICHARG =      2    charge: 1-file 2-atom 10-const
   ISPIN  =      1    spin polarized calculation?
   LNONCOLLINEAR =      F non collinear calculations
   LSORBIT =      F    spin-orbit coupling
   INIWAV =      1    electr: 0-lowe 1-rand  2-diag
   LASPH  =      T    aspherical Exc in radial PAW
 Electronic Relaxation 1
   ENCUT  = 1000.0 eV  73.50 Ry    8.57 a.u.  51.57 51.57 51.57*2*pi/ulx,y,z
   ENINI  = 1000.0     initial cutoff
   ENAUG  = 1000.0 eV  augmentation charge cutoff
   NELM   =     60;   NELMIN=  2; NELMDL= -5     # of ELM steps 
   EDIFF  = 0.1E-06   stopping-criterion for ELM
   LREAL  =      F    real-space projection
   NLSPLINE    = F    spline interpolate recip. space projectors
   LCOMPAT=      F    compatible to vasp.4.4
   GGA_COMPAT  = T    GGA compatible to vasp.4.4-vasp.4.6
   LMAXPAW     = -100 max onsite density
   LMAXMIX     =    2 max onsite mixed and CHGCAR
   VOSKOWN=      0    Vosko Wilk Nusair interpolation
   ROPT   =    0.00000   0.00000   0.00000   0.00000
 Ionic relaxation
   EDIFFG = 0.1E-05   stopping-criterion for IOM
   NSW    =      0    number of steps for IOM
   NBLOCK =      1;   KBLOCK =      1    inner block; outer block 
   IBRION =     -1    ionic relax: 0-MD 1-quasi-New 2-CG
   NFREE  =      0    steps in history (QN), initial steepest desc. (CG)
   ISIF   =      0    stress and relaxation
   IWAVPR =     10    prediction:  0-non 1-charg 2-wave 3-comb
   ISYM   =      2    0-nonsym 1-usesym 2-fastsym
   LCORR  =      T    Harris-Foulkes like correction to forces

   POTIM  = 0.5000    time-step for ionic-motion
   TEIN   =    0.0    initial temperature
   TEBEG  =    0.0;   TEEND  =   0.0 temperature during run
   SMASS  =  -3.00    Nose mass-parameter (am)
   estimated Nose-frequenzy (Omega)   =  0.10E-29 period in steps = 0.13E+47 mass=  -0.914E-26a.u.
   SCALEE = 1.0000    scale energy and forces
   NPACO  =    256;   APACO  = 10.0  distance and # of slots for P.C.
   PSTRESS=    0.0 pullay stress

  Mass of Ions in am
   POMASS =  12.01  1.00 14.00 16.00
  Ionic Valenz
   ZVAL   =   4.00  1.00  5.00  6.00
  Atomic Wigner-Seitz radii
   RWIGS  =  -1.00 -1.00 -1.00 -1.00
  virtual crystal weights 
   VCA    =   1.00  1.00  1.00  1.00
   NELECT =      18.0000    total number of electrons
   NUPDOWN=      -1.0000    fix difference up-down

 DOS related values:
   EMIN   =  10.00;   EMAX   =-10.00  energy-range for DOS
   EFERMI =   0.00;   METHOD = LEGACY      
   ISMEAR =     0;   SIGMA  =   0.01  broadening in eV -4-tet -1-fermi 0-gaus

 Electronic relaxation 2 (details)
   IALGO  =     58    algorithm
   LDIAG  =      T    sub-space diagonalisation (order eigenvalues)
   LSUBROT=      F    optimize rotation matrix (better conditioning)
   TURBO    =      0    0=normal 1=particle mesh
   IRESTART =      0    0=no restart 2=restart with 2 vectors
   NREBOOT  =      0    no. of reboots
   NMIN     =      0    reboot dimension
   EREF     =   0.00    reference energy to select bands
   IMIX   =      4    mixing-type and parameters
     AMIX     =   0.40;   BMIX     =  1.00
     AMIX_MAG =   1.60;   BMIX_MAG =  1.00
     AMIN     =   0.10
     WC   =   100.;   INIMIX=   1;  MIXPRE=   1;  MAXMIX= -45

 Intra band minimization:
   WEIMIN = 0.0000     energy-eigenvalue tresh-hold
   EBREAK =  0.16E-08  absolut break condition
   DEPER  =   0.30     relativ break condition  

   TIME   =   0.40     timestep for ELM

  volume/ion in A,a.u.               =    1333.33      8997.78
  Fermi-wavevector in a.u.,A,eV,Ry     =   0.214521  0.405385  0.626128  0.046019
  Thomas-Fermi vector in A             =   0.987617

 Write flags
   LWAVE        =      F    write WAVECAR
   LDOWNSAMPLE  =      F    k-point downsampling of WAVECAR
   LCHARG       =      F    write CHGCAR
   LVTOT        =      F    write LOCPOT, total local potential
   LVHAR        =      F    write LOCPOT, Hartree potential only
   LELF         =      F    write electronic localiz. function (ELF)
   LORBIT       =      0    0 simple, 1 ext, 2 COOP (PROOUT), +10 PAW based schemes


 Dipole corrections
   LMONO  =      F    monopole corrections only (constant potential shift)
   LDIPOL =      F    correct potential (dipole corrections)
   IDIPOL =      0    1-x, 2-y, 3-z, 4-all directions 
   EPSILON=  1.0000000 bulk dielectric constant

 Exchange correlation treatment:
   GGA     =    OR    GGA type
   LEXCH   =    41    internal setting for exchange type
   LIBXC   =     F    Libxc                    
   VOSKOWN =     0    Vosko Wilk Nusair interpolation
   LHFCALC =     F    Hartree Fock is set to
   LHFONE  =     F    Hartree Fock one center treatment
   AEXX    =    0.0000 exact exchange contribution

 vdW DFT:
   LUSE_VDW   =     T    switch on vdW DFT
   IVDW_NL    =     1    kernel type
   LSPIN_VDW  =     F    use spin-polarized vdW DFT
   Zab_VDW    =-.8491    correlation parameter
   PARAM1     =0.1234
   PARAM2     =1.0000
   PARAM3     =0.0000
   -- rVV10 --
   BPARAM     = 6.3000
   CPARAM     = 0.0093

 Linear response parameters
   LEPSILON=     F    determine dielectric tensor
   LRPA    =     F    only Hartree local field effects (RPA)
   LNABLA  =     F    use nabla operator in PAW spheres
   LVEL    =     F    velocity operator in full k-point grid
   CSHIFT  =0.1000    complex shift for real part using Kramers Kronig
   OMEGAMAX=  -1.0    maximum frequency
   DEG_THRESHOLD= 0.2000000E-02 threshold for treating states as degnerate
   RTIME   =   -0.100 relaxation time in fs
  (WPLASMAI=    0.000 imaginary part of plasma frequency in eV, 0.658/RTIME)
   DFIELD  = 0.0000000 0.0000000 0.0000000 field for delta impulse in time

  Optional k-point grid parameters
   LKPOINTS_OPT  =     F    use optional k-point grid
   KPOINTS_OPT_MODE=     1    mode for optional k-point grid

 Orbital magnetization related:
   ORBITALMAG=     F  switch on orbital magnetization
   LCHIMAG   =     F  perturbation theory with respect to B field
   DQ        =  0.001000  dq finite difference perturbation B field
   LLRAUG    =     F  two centre corrections for induced B field
   LBONE     =     F  B-component reconstruction in AE one-centre
   LVGVCALC  =     T  calculate vGv susceptibility
   LVGVAPPL  =     F  apply vGv susceptibility instead of pGv for G=0

 Random number generation:
   RANDOM_GENERATOR = DEFAULT
   PCG_SEED         = not used


--------------------------------------------------------------------------------------------------------


 Static calculation
 charge density and potential will be updated during run
 non-spin polarized calculation
 Conjugate gradient for all bands (Freysoldt, et al. PRB 79, 241103 (2009))
 preconditioned conjugated gradient                                        
 perform sub-space diagonalisation
    before iterative eigenvector-optimisation
 modified Broyden-mixing scheme, WC =      100.0
 initial mixing is a Kerker type mixing with AMIX =  0.4000 and BMIX =      1.0000
 Hartree-type preconditioning will be used
 using additional bands            7
 reciprocal scheme for non local part
 use partial core corrections
 no Harris-corrections to forces 
 use gradient corrections 
 use of overlap-Matrix (Vanderbilt PP)
 Gauss-broadening in eV      SIGMA  =   0.01


--------------------------------------------------------------------------------------------------------


  energy-cutoff  :     1000.00
  volume of cell :     8000.00
      direct lattice vectors                 reciprocal lattice vectors
    20.000000000  0.000000000  0.000000000     0.050000000  0.000000000  0.000000000
     0.000000000 20.000000000  0.000000000     0.000000000  0.050000000  0.000000000
     0.000000000  0.000000000 20.000000000     0.000000000  0.000000000  0.050000000

  length of vectors
    20.000000000 20.000000000 20.000000000     0.050000000  0.050000000  0.050000000



 k-points in units of 2pi/SCALE and weight: auto                                    
   0.00000000  0.00000000  0.00000000       1.000

 k-points in reciprocal lattice and weights: auto                                    
   0.00000000  0.00000000  0.00000000       1.000

 position of ions in fractional coordinates (direct lattice) 
   0.52937950  0.49905650  0.50057900
   0.43296500  0.47477500  0.53019850
   0.43969550  0.54418600  0.47775750
   0.54709900  0.45581400  0.53064850
   0.46171150  0.50612300  0.50291550
   0.56703500  0.53537300  0.46935150

 position of ions in cartesian coordinates  (Angst):
  10.58759000  9.98113000 10.01158000
   8.65930000  9.49550000 10.60397000
   8.79391000 10.88372000  9.55515000
  10.94198000  9.11628000 10.61297000
   9.23423000 10.12246000 10.05831000
  11.34070000 10.70746000  9.38703000



--------------------------------------------------------------------------------------------------------


 use parallel FFT for orbitals z direction half grid
 k-point   1 :   0.0000 0.0000 0.0000  plane waves:  287166

 maximum and minimum number of plane-waves per node :      2251     2230

 maximum number of plane-waves:    287166
 maximum index in each direction: 
   IXMAX=   51   IYMAX=   51   IZMAX=   51
   IXMIN=  -51   IYMIN=  -51   IZMIN=    0


 parallel 3D FFT for wavefunctions:
    minimum data exchange during FFTs selected (reduces bandwidth)
 parallel 3D FFT for charge:
    minimum data exchange during FFTs selected (reduces bandwidth)


 total amount of memory used by VASP MPI-rank0    55343. kBytes
=======================================================================

   base      :      30000. kBytes
   nonl-proj :        792. kBytes
   fftplans  :       7836. kBytes
   grid      :      16282. kBytes
   one-center:          1. kBytes
   wavefun   :        432. kBytes

     INWAV:  cpu time      0.0000: real time      0.0000
 Broyden mixing: mesh for mixing (old mesh)
   NGX =103   NGY =103   NGZ =103
  (NGX  =420   NGY  =420   NGZ  =420)
  gives a total of ****** points

 initial charge density was supplied:
 charge density of overlapping atoms calculated
 number of electron      18.0000000 magnetization 
 keeping initial charge density in first step


--------------------------------------------------------------------------------------------------------


 Maximum index for augmentation-charges            0 (set IRDMAX)


--------------------------------------------------------------------------------------------------------


 First call to EWALD:  gamma=   0.089
 Maximum number of real-space cells 3x 3x 3
 Maximum number of reciprocal cells 3x 3x 3

    FEWALD:  cpu time      0.0024: real time      0.0025


--------------------------------------- Ionic step        1  -------------------------------------------




--------------------------------------- Iteration      1(   1)  ---------------------------------------


vdW kernel read from vdw_kernel.bindat
  0.0000  0.2424  0.5071  0.7962  1.1119  1.4567  1.8333  2.2446  2.6937  3.1842
  3.7199  4.3049  4.9438  5.6415  6.4036  7.2358  8.1446  9.1372 10.2212 11.4050
 12.6979 14.1099 15.6519 17.3360 19.1751 21.1837 23.3773 25.7729 28.3892 31.2465
 34.3669 37.7748 41.4965 45.5611 50.0000

    POTLOK:  cpu time      7.8515: real time      7.8567
    SETDIJ:  cpu time      0.0776: real time      0.0784
    TRIAL :  cpu time      0.1849: real time      0.1880
    CORREC:  cpu time      0.0014: real time      0.0015
    --------------------------------------------
      LOOP:  cpu time      8.1211: real time      8.1307

 eigenvalue-minimisations  :    48
 total energy-change (2. order) : 0.1634139E+03  (-0.4393104E+03)
 number of electron      18.0000000 magnetization 
 augmentation part       18.0000000 magnetization 

 Free energy of the ion-electron system (eV)
  ---------------------------------------------------
  alpha Z        PSCENC =         0.11561839
  Ewald energy   TEWEN  =       762.02411429
  -Hartree energ DENC   =     -1422.65886329
  -exchange      EXHF   =         0.00000000
  -V(xc)+E(xc)   XCENC  =        55.33059897
  PAW double counting   =       672.90068849     -666.67195053
  entropy T*S    EENTRO =        -0.00000000
  eigenvalues    EBANDS =      -126.82535600
  atomic energy  EATOM  =       889.19905896
  ---------------------------------------------------
  free energy    TOTEN  =       163.41390929 eV

  energy without entropy =      163.41390929  energy(sigma->0) =      163.41390929


--------------------------------------------------------------------------------------------------------




--------------------------------------- Iteration      1(   2)  ---------------------------------------


    TRIAL :  cpu time      0.1606: real time      0.1606
    CORREC:  cpu time      0.0001: real time      0.0001
    --------------------------------------------
      LOOP:  cpu time      0.1772: real time      0.1901

 eigenvalue-minimisations  :    56
 total energy-change (2. order) :-0.9485646E+02  (-0.9041125E+02)
 number of electron      18.0000000 magnetization 
 augmentation part       18.0000000 magnetization 

 Free energy of the ion-electron system (eV)
  ---------------------------------------------------
  alpha Z        PSCENC =         0.11561839
  Ewald energy   TEWEN  =       762.02411429
  -Hartree energ DENC   =     -1422.65886329
  -exchange      EXHF   =         0.00000000
  -V(xc)+E(xc)   XCENC  =        55.33059897
  PAW double counting   =       672.90068849     -666.67195053
  entropy T*S    EENTRO =        -0.00000000
  eigenvalues    EBANDS =      -221.68181253
  atomic energy  EATOM  =       889.19905896
  ---------------------------------------------------
  free energy    TOTEN  =        68.55745275 eV

  energy without entropy =       68.55745275  energy(sigma->0) =       68.55745275


--------------------------------------------------------------------------------------------------------




--------------------------------------- Iteration      1(   3)  ---------------------------------------


    TRIAL :  cpu time      0.1593: real time      0.1593
    CORREC:  cpu time      0.0001: real time      0.0001
    --------------------------------------------
      LOOP:  cpu time      0.1725: real time      0.1885

 eigenvalue-minimisations  :    56
 total energy-change (2. order) :-0.8189696E+02  (-0.8109423E+02)
 number of electron      18.0000000 magnetization 
 augmentation part       18.0000000 magnetization 

 Free energy of the ion-electron system (eV)
  ---------------------------------------------------
  alpha Z        PSCENC =         0.11561839
  Ewald energy   TEWEN  =       762.02411429
  -Hartree energ DENC   =     -1422.65886329
  -exchange      EXHF   =         0.00000000
  -V(xc)+E(xc)   XCENC  =        55.33059897
  PAW double counting   =       672.90068849     -666.67195053
  entropy T*S    EENTRO =        -0.00000000
  eigenvalues    EBANDS =      -303.57877344
  atomic energy  EATOM  =       889.19905896
  ---------------------------------------------------
  free energy    TOTEN  =       -13.33950816 eV

  energy without entropy =      -13.33950816  energy(sigma->0) =      -13.33950816


--------------------------------------------------------------------------------------------------------




--------------------------------------- Iteration      1(   4)  ---------------------------------------


    TRIAL :  cpu time      0.1100: real time      0.1101
    CORREC:  cpu time      0.0001: real time      0.0001
    --------------------------------------------
      LOOP:  cpu time      0.1251: real time      0.1404

 eigenvalue-minimisations  :    32
 total energy-change (2. order) :-0.2007288E+02  (-0.2002670E+02)
 number of electron      18.0000000 magnetization 
 augmentation part       18.0000000 magnetization 

 Free energy of the ion-electron system (eV)
  ---------------------------------------------------
  alpha Z        PSCENC =         0.11561839
  Ewald energy   TEWEN  =       762.02411429
  -Hartree energ DENC   =     -1422.65886329
  -exchange      EXHF   =         0.00000000
  -V(xc)+E(xc)   XCENC  =        55.33059897
  PAW double counting   =       672.90068849     -666.67195053
  entropy T*S    EENTRO =        -0.00000000
  eigenvalues    EBANDS =      -323.65165181
  atomic energy  EATOM  =       889.19905896
  ---------------------------------------------------
  free energy    TOTEN  =       -33.41238652 eV

  energy without entropy =      -33.41238652  energy(sigma->0) =      -33.41238652


--------------------------------------------------------------------------------------------------------




--------------------------------------- Iteration      1(   5)  ---------------------------------------


    TRIAL :  cpu time      0.1418: real time      0.1418
    CORREC:  cpu time      0.0001: real time      0.0001
    CHARGE:  cpu time      0.0582: real time      0.0604
    --------------------------------------------
      LOOP:  cpu time      0.2135: real time      0.2317

 eigenvalue-minimisations  :    48
 total energy-change (2. order) :-0.9138419E+00  (-0.9043988E+00)
 number of electron      18.0000000 magnetization 
 augmentation part        0.0924571 magnetization 

 Free energy of the ion-electron system (eV)
  ---------------------------------------------------
  alpha Z        PSCENC =         0.11561839
  Ewald energy   TEWEN  =       762.02411429
  -Hartree energ DENC   =     -1422.65886329
  -exchange      EXHF   =         0.00000000
  -V(xc)+E(xc)   XCENC  =        55.33059897
  PAW double counting   =       672.90068849     -666.67195053
  entropy T*S    EENTRO =        -0.00000000
  eigenvalues    EBANDS =      -324.56549369
  atomic energy  EATOM  =       889.19905896
  ---------------------------------------------------
  free energy    TOTEN  =       -34.32622840 eV

  energy without entropy =      -34.32622840  energy(sigma->0) =      -34.32622840


--------------------------------------------------------------------------------------------------------




--------------------------------------- Iteration      1(   6)  ---------------------------------------


    POTLOK:  cpu time      7.2012: real time      7.2030
    SETDIJ:  cpu time      0.0681: real time      0.0681
    TRIAL :  cpu time      0.0817: real time      0.0826
    CORREC:  cpu time      7.4672: real time      7.4698
    CHARGE:  cpu time      0.0298: real time      0.0298
    --------------------------------------------
      LOOP:  cpu time     14.8644: real time     14.8829

 eigenvalue-minimisations  :     0
 total energy-change (2. order) : 0.8782747E+01  (-0.4080813E+01)
 number of electron      18.0000000 magnetization 
 augmentation part        0.0589380 magnetization 

 Free energy of the ion-electron system (eV)
  ---------------------------------------------------
  alpha Z        PSCENC =         0.11561839
  Ewald energy   TEWEN  =       762.02411429
  -Hartree energ DENC   =     -1583.45956543
  -exchange      EXHF   =         0.00000000
  -V(xc)+E(xc)   XCENC  =        63.01790420
  PAW double counting   =      6300.40927066    -6295.46603493
  entropy T*S    EENTRO =        -0.00000000
  eigenvalues    EBANDS =      -161.38384802
  atomic energy  EATOM  =       889.19905896
  ---------------------------------------------------
  free energy    TOTEN  =       -25.54348188 eV

  energy without entropy =      -25.54348188  energy(sigma->0) =      -25.54348188


--------------------------------------------------------------------------------------------------------




--------------------------------------- Iteration      1(   7)  ---------------------------------------


    POTLOK:  cpu time      7.1508: real time      7.1530
    SETDIJ:  cpu time      0.0682: real time      0.0682
    TRIAL :  cpu time      0.0608: real time      0.0608
    CORREC:  cpu time      7.7869: real time      7.7889
    CHARGE:  cpu time      0.0307: real time      0.0307
    --------------------------------------------
      LOOP:  cpu time     15.1269: real time     15.1314

 eigenvalue-minimisations  :     0
 total energy-change (2. order) :-0.4168657E+01  (-0.4431695E+00)
 number of electron      18.0000000 magnetization 
 augmentation part        0.0365046 magnetization 

 Free energy of the ion-electron system (eV)
  ---------------------------------------------------
  alpha Z        PSCENC =         0.11561839
  Ewald energy   TEWEN  =       762.02411429
  -Hartree energ DENC   =     -1503.74333206
  -exchange      EXHF   =         0.00000000
  -V(xc)+E(xc)   XCENC  =        59.24148457
  PAW double counting   =      8087.89791190    -8082.31139041
  entropy T*S    EENTRO =        -0.00000000
  eigenvalues    EBANDS =      -242.13560418
  atomic energy  EATOM  =       889.19905896
  ---------------------------------------------------
  free energy    TOTEN  =       -29.71213853 eV

  energy without entropy =      -29.71213853  energy(sigma->0) =      -29.71213853


--------------------------------------------------------------------------------------------------------




--------------------------------------- Iteration      1(   8)  ---------------------------------------


    POTLOK:  cpu time      7.2244: real time      7.2264
    SETDIJ:  cpu time      0.0682: real time      0.0682
    TRIAL :  cpu time      0.0602: real time      0.0602
    CORREC:  cpu time      7.7875: real time      7.7901
    CHARGE:  cpu time      0.0300: real time      0.0300
    --------------------------------------------
      LOOP:  cpu time     15.1856: real time     15.2068

 eigenvalue-minimisations  :     0
 total energy-change (2. order) :-0.4440257E+00  (-0.1726072E+00)
 number of electron      18.0000000 magnetization 
 augmentation part        0.0329405 magnetization 

 Free energy of the ion-electron system (eV)
  ---------------------------------------------------
  alpha Z        PSCENC =         0.11561839
  Ewald energy   TEWEN  =       762.02411429
  -Hartree energ DENC   =     -1501.18392050
  -exchange      EXHF   =         0.00000000
  -V(xc)+E(xc)   XCENC  =        59.12663545
  PAW double counting   =      8247.19732683    -8241.49711903
  entropy T*S    EENTRO =        -0.00000000
  eigenvalues    EBANDS =      -245.13787861
  atomic energy  EATOM  =       889.19905896
  ---------------------------------------------------
  free energy    TOTEN  =       -30.15616422 eV

  energy without entropy =      -30.15616422  energy(sigma->0) =      -30.15616422


--------------------------------------------------------------------------------------------------------




--------------------------------------- Iteration      1(   9)  ---------------------------------------


    POTLOK:  cpu time      7.2836: real time      7.2856
    SETDIJ:  cpu time      0.0682: real time      0.0682
    TRIAL :  cpu time      0.0600: real time      0.0600
    CORREC:  cpu time      7.2789: real time      7.2813
    CHARGE:  cpu time      0.0299: real time      0.0299
    --------------------------------------------
      LOOP:  cpu time     14.7347: real time     14.7568

 eigenvalue-minimisations  :     0
 total energy-change (2. order) :-0.1718764E+00  (-0.7757871E-01)
 number of electron      18.0000000 magnetization 
 augmentation part        0.0345150 magnetization 

 Free energy of the ion-electron system (eV)
  ---------------------------------------------------
  alpha Z        PSCENC =         0.11561839
  Ewald energy   TEWEN  =       762.02411429
  -Hartree energ DENC   =     -1500.89057822
  -exchange      EXHF   =         0.00000000
  -V(xc)+E(xc)   XCENC  =        59.10495690
  PAW double counting   =      8432.59577166    -8426.86576020
  entropy T*S    EENTRO =        -0.00000000
  eigenvalues    EBANDS =      -245.61122245
  atomic energy  EATOM  =       889.19905896
  ---------------------------------------------------
  free energy    TOTEN  =       -30.32804066 eV

  energy without entropy =      -30.32804066  energy(sigma->0) =      -30.32804066


--------------------------------------------------------------------------------------------------------




--------------------------------------- Iteration      1(  10)  ---------------------------------------


    POTLOK:  cpu time      7.3031: real time      7.3049
    SETDIJ:  cpu time      0.0682: real time      0.0682
    TRIAL :  cpu time      0.0606: real time      0.0606
    CORREC:  cpu time      7.3186: real time      7.3210
    CHARGE:  cpu time      0.0297: real time      0.0297
    --------------------------------------------
      LOOP:  cpu time     14.7924: real time     14.8142

 eigenvalue-minimisations  :     0
 total energy-change (2. order) :-0.7681066E-01  (-0.2619013E-01)
 number of electron      18.0000000 magnetization 
 augmentation part        0.0351582 magnetization 

 Free energy of the ion-electron system (eV)
  ---------------------------------------------------
  alpha Z        PSCENC =         0.11561839
  Ewald energy   TEWEN  =       762.02411429
  -Hartree energ DENC   =     -1499.34491935
  -exchange      EXHF   =         0.00000000
  -V(xc)+E(xc)   XCENC  =        59.05296630
  PAW double counting   =      8322.23357046    -8316.50777337
  entropy T*S    EENTRO =        -0.00000000
  eigenvalues    EBANDS =      -247.17748700
  atomic energy  EATOM  =       889.19905896
  ---------------------------------------------------
  free energy    TOTEN  =       -30.40485133 eV

  energy without entropy =      -30.40485133  energy(sigma->0) =      -30.40485133


--------------------------------------------------------------------------------------------------------




--------------------------------------- Iteration      1(  11)  ---------------------------------------


    POTLOK:  cpu time      7.2728: real time      7.2753
    SETDIJ:  cpu time      0.0685: real time      0.0685
    TRIAL :  cpu time      0.0616: real time      0.0616
    CORREC:  cpu time      7.3329: real time      7.3350
    CHARGE:  cpu time      0.0297: real time      0.0297
    --------------------------------------------
      LOOP:  cpu time     14.7798: real time     14.8005

 eigenvalue-minimisations  :     0
 total energy-change (2. order) :-0.2606347E-01  (-0.8041243E-02)
 number of electron      18.0000000 magnetization 
 augmentation part        0.0355224 magnetization 

 Free energy of the ion-electron system (eV)
  ---------------------------------------------------
  alpha Z        PSCENC =         0.11561839
  Ewald energy   TEWEN  =       762.02411429
  -Hartree energ DENC   =     -1498.09404664
  -exchange      EXHF   =         0.00000000
  -V(xc)+E(xc)   XCENC  =        59.00470136
  PAW double counting   =      8163.10463794    -8157.38509703
  entropy T*S    EENTRO =        -0.00000000
  eigenvalues    EBANDS =      -248.39990207
  atomic energy  EATOM  =       889.19905896
  ---------------------------------------------------
  free energy    TOTEN  =       -30.43091480 eV

  energy without entropy =      -30.43091480  energy(sigma->0) =      -30.43091480


--------------------------------------------------------------------------------------------------------




--------------------------------------- Iteration      1(  12)  ---------------------------------------


    POTLOK:  cpu time      7.2214: real time      7.2235
    SETDIJ:  cpu time      0.0683: real time      0.0683
    TRIAL :  cpu time      0.0604: real time      0.0604
    CORREC:  cpu time      7.4919: real time      7.4941
    CHARGE:  cpu time      0.0297: real time      0.0297
    --------------------------------------------
      LOOP:  cpu time     14.9010: real time     14.9055

 eigenvalue-minimisations  :     0
 total energy-change (2. order) :-0.8028295E-02  (-0.2360057E-02)
 number of electron      18.0000000 magnetization 
 augmentation part        0.0357303 magnetization 

 Free energy of the ion-electron system (eV)
  ---------------------------------------------------
  alpha Z        PSCENC =         0.11561839
  Ewald energy   TEWEN  =       762.02411429
  -Hartree energ DENC   =     -1497.88166397
  -exchange      EXHF   =         0.00000000
  -V(xc)+E(xc)   XCENC  =        58.99210896
  PAW double counting   =      8104.58553608    -8098.87034370
  entropy T*S    EENTRO =        -0.00000000
  eigenvalues    EBANDS =      -248.60337210
  atomic energy  EATOM  =       889.19905896
  ---------------------------------------------------
  free energy    TOTEN  =       -30.43894310 eV

  energy without entropy =      -30.43894310  energy(sigma->0) =      -30.43894310


--------------------------------------------------------------------------------------------------------




--------------------------------------- Iteration      1(  13)  ---------------------------------------


    POTLOK:  cpu time      7.1458: real time      7.1481
    SETDIJ:  cpu time      0.0684: real time      0.0684
    TRIAL :  cpu time      0.0624: real time      0.0624
    CORREC:  cpu time      7.4187: real time      7.4209
    CHARGE:  cpu time      0.0298: real time      0.0298
    --------------------------------------------
      LOOP:  cpu time     14.7429: real time     14.7627

 eigenvalue-minimisations  :     0
 total energy-change (2. order) :-0.2360978E-02  (-0.6669658E-03)
 number of electron      18.0000000 magnetization 
 augmentation part        0.0356135 magnetization 

 Free energy of the ion-electron system (eV)
  ---------------------------------------------------
  alpha Z        PSCENC =         0.11561839
  Ewald energy   TEWEN  =       762.02411429
  -Hartree energ DENC   =     -1497.83876961
  -exchange      EXHF   =         0.00000000
  -V(xc)+E(xc)   XCENC  =        58.98903621
  PAW double counting   =      8108.54374415    -8102.83075852
  entropy T*S    EENTRO =        -0.00000000
  eigenvalues    EBANDS =      -248.64334794
  atomic energy  EATOM  =       889.19905896
  ---------------------------------------------------
  free energy    TOTEN  =       -30.44130407 eV

  energy without entropy =      -30.44130407  energy(sigma->0) =      -30.44130407


--------------------------------------------------------------------------------------------------------




--------------------------------------- Iteration      1(  14)  ---------------------------------------


    POTLOK:  cpu time      7.2627: real time      7.2645
    SETDIJ:  cpu time      0.0685: real time      0.0685
    TRIAL :  cpu time      0.0598: real time      0.0598
    CORREC:  cpu time      7.3564: real time      7.3585
    CHARGE:  cpu time      0.0299: real time      0.0299
    --------------------------------------------
      LOOP:  cpu time     14.7902: real time     14.8108

 eigenvalue-minimisations  :     0
 total energy-change (2. order) :-0.6672284E-03  (-0.2057970E-03)
 number of electron      18.0000000 magnetization 
 augmentation part        0.0356034 magnetization 

 Free energy of the ion-electron system (eV)
  ---------------------------------------------------
  alpha Z        PSCENC =         0.11561839
  Ewald energy   TEWEN  =       762.02411429
  -Hartree energ DENC   =     -1497.70639494
  -exchange      EXHF   =         0.00000000
  -V(xc)+E(xc)   XCENC  =        58.98207354
  PAW double counting   =      8116.70059001    -8110.98682898
  entropy T*S    EENTRO =        -0.00000000
  eigenvalues    EBANDS =      -248.77020257
  atomic energy  EATOM  =       889.19905896
  ---------------------------------------------------
  free energy    TOTEN  =       -30.44197130 eV

  energy without entropy =      -30.44197130  energy(sigma->0) =      -30.44197130


--------------------------------------------------------------------------------------------------------




--------------------------------------- Iteration      1(  15)  ---------------------------------------


    POTLOK:  cpu time      7.1891: real time      7.1912
    SETDIJ:  cpu time      0.0684: real time      0.0684
    TRIAL :  cpu time      0.0605: real time      0.0605
    CORREC:  cpu time      7.4162: real time      7.4183
    CHARGE:  cpu time      0.0304: real time      0.0304
    --------------------------------------------
      LOOP:  cpu time     14.7943: real time     14.7986

 eigenvalue-minimisations  :     0
 total energy-change (2. order) :-0.2057063E-03  (-0.6866380E-04)
 number of electron      18.0000000 magnetization 
 augmentation part        0.0355752 magnetization 

 Free energy of the ion-electron system (eV)
  ---------------------------------------------------
  alpha Z        PSCENC =         0.11561839
  Ewald energy   TEWEN  =       762.02411429
  -Hartree energ DENC   =     -1497.86463978
  -exchange      EXHF   =         0.00000000
  -V(xc)+E(xc)   XCENC  =        58.98840325
  PAW double counting   =      8113.90100756    -8108.18806881
  entropy T*S    EENTRO =        -0.00000000
  eigenvalues    EBANDS =      -248.61767087
  atomic energy  EATOM  =       889.19905896
  ---------------------------------------------------
  free energy    TOTEN  =       -30.44217701 eV

  energy without entropy =      -30.44217701  energy(sigma->0) =      -30.44217701


--------------------------------------------------------------------------------------------------------




--------------------------------------- Iteration      1(  16)  ---------------------------------------


    POTLOK:  cpu time      7.2813: real time      7.2834
    SETDIJ:  cpu time      0.0687: real time      0.0687
    TRIAL :  cpu time      0.0612: real time      0.0612
    CORREC:  cpu time      7.3509: real time      7.3528
    CHARGE:  cpu time      0.0309: real time      0.0309
    --------------------------------------------
      LOOP:  cpu time     14.8078: real time     14.8265

 eigenvalue-minimisations  :     0
 total energy-change (2. order) :-0.6879787E-04  (-0.2300247E-04)
 number of electron      18.0000000 magnetization 
 augmentation part        0.0356175 magnetization 

 Free energy of the ion-electron system (eV)
  ---------------------------------------------------
  alpha Z        PSCENC =         0.11561839
  Ewald energy   TEWEN  =       762.02411429
  -Hartree energ DENC   =     -1497.83803406
  -exchange      EXHF   =         0.00000000
  -V(xc)+E(xc)   XCENC  =        58.98622143
  PAW double counting   =      8109.75216425    -8104.03880320
  entropy T*S    EENTRO =        -0.00000000
  eigenvalues    EBANDS =      -248.64258586
  atomic energy  EATOM  =       889.19905896
  ---------------------------------------------------
  free energy    TOTEN  =       -30.44224581 eV

  energy without entropy =      -30.44224581  energy(sigma->0) =      -30.44224581


--------------------------------------------------------------------------------------------------------




--------------------------------------- Iteration      1(  17)  ---------------------------------------


    POTLOK:  cpu time      7.3302: real time      7.3328
    SETDIJ:  cpu time      0.0688: real time      0.0688
    TRIAL :  cpu time      0.0602: real time      0.0602
    CORREC:  cpu time      7.3357: real time      7.3373
    CHARGE:  cpu time      0.0300: real time      0.0300
    --------------------------------------------
      LOOP:  cpu time     14.8381: real time     14.8587

 eigenvalue-minimisations  :     0
 total energy-change (2. order) :-0.2306826E-04  (-0.7466414E-05)
 number of electron      18.0000000 magnetization 
 augmentation part        0.0356204 magnetization 

 Free energy of the ion-electron system (eV)
  ---------------------------------------------------
  alpha Z        PSCENC =         0.11561839
  Ewald energy   TEWEN  =       762.02411429
  -Hartree energ DENC   =     -1497.89046229
  -exchange      EXHF   =         0.00000000
  -V(xc)+E(xc)   XCENC  =        58.98853563
  PAW double counting   =      8106.19225703    -8100.47924420
  entropy T*S    EENTRO =        -0.00000000
  eigenvalues    EBANDS =      -248.59214669
  atomic energy  EATOM  =       889.19905896
  ---------------------------------------------------
  free energy    TOTEN  =       -30.44226887 eV

  energy without entropy =      -30.44226887  energy(sigma->0) =      -30.44226887


--------------------------------------------------------------------------------------------------------




--------------------------------------- Iteration      1(  18)  ---------------------------------------


    POTLOK:  cpu time      7.2403: real time      7.2420
    SETDIJ:  cpu time      0.0683: real time      0.0683
    TRIAL :  cpu time      0.0603: real time      0.0603
    CORREC:  cpu time      7.3697: real time      7.3720
    CHARGE:  cpu time      0.0303: real time      0.0303
    --------------------------------------------
      LOOP:  cpu time     14.7985: real time     14.8027

 eigenvalue-minimisations  :     0
 total energy-change (2. order) :-0.7504736E-05  (-0.2444022E-05)
 number of electron      18.0000000 magnetization 
 augmentation part        0.0356288 magnetization 

 Free energy of the ion-electron system (eV)
  ---------------------------------------------------
  alpha Z        PSCENC =         0.11561839
  Ewald energy   TEWEN  =       762.02411429
  -Hartree energ DENC   =     -1497.89028460
  -exchange      EXHF   =         0.00000000
  -V(xc)+E(xc)   XCENC  =        58.98854815
  PAW double counting   =      8105.91267797    -8100.19956253
  entropy T*S    EENTRO =        -0.00000000
  eigenvalues    EBANDS =      -248.59244701
  atomic energy  EATOM  =       889.19905896
  ---------------------------------------------------
  free energy    TOTEN  =       -30.44227638 eV

  energy without entropy =      -30.44227638  energy(sigma->0) =      -30.44227638


--------------------------------------------------------------------------------------------------------




--------------------------------------- Iteration      1(  19)  ---------------------------------------


    POTLOK:  cpu time      7.3086: real time      7.3106
    SETDIJ:  cpu time      0.0682: real time      0.0682
    TRIAL :  cpu time      0.0605: real time      0.0605
    CORREC:  cpu time      7.4052: real time      7.4072
    CHARGE:  cpu time      0.0301: real time      0.0301
    --------------------------------------------
      LOOP:  cpu time     14.8870: real time     14.9061

 eigenvalue-minimisations  :     0
 total energy-change (2. order) :-0.2447339E-05  (-0.7844595E-06)
 number of electron      18.0000000 magnetization 
 augmentation part        0.0356251 magnetization 

 Free energy of the ion-electron system (eV)
  ---------------------------------------------------
  alpha Z        PSCENC =         0.11561839
  Ewald energy   TEWEN  =       762.02411429
  -Hartree energ DENC   =     -1497.89820675
  -exchange      EXHF   =         0.00000000
  -V(xc)+E(xc)   XCENC  =        58.98901846
  PAW double counting   =      8107.22067579    -8101.50758050
  entropy T*S    EENTRO =        -0.00000000
  eigenvalues    EBANDS =      -248.58497747
  atomic energy  EATOM  =       889.19905896
  ---------------------------------------------------
  free energy    TOTEN  =       -30.44227883 eV

  energy without entropy =      -30.44227883  energy(sigma->0) =      -30.44227883


--------------------------------------------------------------------------------------------------------




--------------------------------------- Iteration      1(  20)  ---------------------------------------


    POTLOK:  cpu time      7.1317: real time      7.1335
    SETDIJ:  cpu time      0.0685: real time      0.0685
    TRIAL :  cpu time      0.0599: real time      0.0599
    CORREC:  cpu time      7.5462: real time      7.5483
    CHARGE:  cpu time      0.0297: real time      0.0297
    --------------------------------------------
      LOOP:  cpu time     14.8502: real time     14.8709

 eigenvalue-minimisations  :     0
 total energy-change (2. order) :-0.7828312E-06  (-0.2906278E-06)
 number of electron      18.0000000 magnetization 
 augmentation part        0.0356284 magnetization 

 Free energy of the ion-electron system (eV)
  ---------------------------------------------------
  alpha Z        PSCENC =         0.11561839
  Ewald energy   TEWEN  =       762.02411429
  -Hartree energ DENC   =     -1497.89429071
  -exchange      EXHF   =         0.00000000
  -V(xc)+E(xc)   XCENC  =        58.98888976
  PAW double counting   =      8108.48778421    -8102.77461333
  entropy T*S    EENTRO =        -0.00000000
  eigenvalues    EBANDS =      -248.58884118
  atomic energy  EATOM  =       889.19905896
  ---------------------------------------------------
  free energy    TOTEN  =       -30.44227961 eV

  energy without entropy =      -30.44227961  energy(sigma->0) =      -30.44227961


--------------------------------------------------------------------------------------------------------




--------------------------------------- Iteration      1(  21)  ---------------------------------------


    POTLOK:  cpu time      7.2237: real time      7.2256
    SETDIJ:  cpu time      0.0685: real time      0.0685
    TRIAL :  cpu time      0.0599: real time      0.0599
    CORREC:  cpu time      7.3370: real time      7.3391
    CHARGE:  cpu time      0.0296: real time      0.0296
    --------------------------------------------
      LOOP:  cpu time     14.7344: real time     14.7529

 eigenvalue-minimisations  :     0
 total energy-change (2. order) :-0.2825218E-06  (-0.9293775E-07)
 number of electron      18.0000000 magnetization 
 augmentation part        0.0356254 magnetization 

 Free energy of the ion-electron system (eV)
  ---------------------------------------------------
  alpha Z        PSCENC =         0.11561839
  Ewald energy   TEWEN  =       762.02411429
  -Hartree energ DENC   =     -1497.89862548
  -exchange      EXHF   =         0.00000000
  -V(xc)+E(xc)   XCENC  =        58.98914655
  PAW double counting   =      8109.16818549    -8103.45504725
  entropy T*S    EENTRO =        -0.00000000
  eigenvalues    EBANDS =      -248.58473084
  atomic energy  EATOM  =       889.19905896
  ---------------------------------------------------
  free energy    TOTEN  =       -30.44227989 eV

  energy without entropy =      -30.44227989  energy(sigma->0) =      -30.44227989


--------------------------------------------------------------------------------------------------------




--------------------------------------- Iteration      1(  22)  ---------------------------------------


    POTLOK:  cpu time      7.2928: real time      7.2948
    SETDIJ:  cpu time      0.0683: real time      0.0683
    TRIAL :  cpu time      0.0605: real time      0.0605
    CORREC:  cpu time      7.2816: real time      7.2834
    EDDIAG:  cpu time      0.0420: real time      0.0425
    CHARGE:  cpu time      0.0297: real time      0.0297
    --------------------------------------------
      LOOP:  cpu time     14.7891: real time     14.8127

 eigenvalue-minimisations  :     0
 total energy-change (2. order) :-0.9388896E-07  (-0.4880858E-07)
 number of electron      18.0000000 magnetization 
 augmentation part        0.0356264 magnetization 

 Free energy of the ion-electron system (eV)
  ---------------------------------------------------
  alpha Z        PSCENC =         0.11561839
  Ewald energy   TEWEN  =       762.02411429
  -Hartree energ DENC   =     -1497.89372161
  -exchange      EXHF   =         0.00000000
  -V(xc)+E(xc)   XCENC  =        58.98892542
  PAW double counting   =      8109.33300724    -8103.61983177
  entropy T*S    EENTRO =        -0.00000000
  eigenvalues    EBANDS =      -248.58945091
  atomic energy  EATOM  =       889.19905896
  ---------------------------------------------------
  free energy    TOTEN  =       -30.44227999 eV

  energy without entropy =      -30.44227999  energy(sigma->0) =      -30.44227999


--------------------------------------------------------------------------------------------------------


  average scaling for gradient   1.0471


 average (electrostatic) potential at core
  the test charge radii are     0.5770  0.4325  0.5902  0.5955
  (the norm of the test charge is              1.0000)
       1 -89.3135       2 -48.7011       3 -48.5294       4 -46.5753       5-105.1144
       6-119.1108



 E-fermi :  -6.1192     XC(G=0):  -0.1682     alpha+bet : -0.0451

 Fermi energy:        -6.1191832480

 k-point     1 :       0.0000    0.0000    0.0000
  band No.  band energies     occupation 
      1     -26.0701      2.00000
      2     -22.9537      2.00000
      3     -15.7671      2.00000
      4     -14.0358      2.00000
      5     -12.0141      2.00000
      6     -10.1969      2.00000
      7     -10.1312      2.00000
      8      -6.9194      2.00000
      9      -6.2059      2.00000
     10      -1.2088      0.00000
     11      -1.0184      0.00000
     12      -0.5260      0.00000
     13      -0.0306      0.00000
     14       0.0300      0.00000
     15       0.0960      0.00000
     16       0.3896      0.00000


--------------------------------------------------------------------------------------------------------


 soft charge-density along one line, spin component           1
         0         1         2         3         4         5         6         7         8         9
 total charge-density along one line

 pseudopotential strength for first ion, spin component:           1
 12.815  21.568   0.005  -0.003  -0.008   0.009  -0.005  -0.015
 21.568  36.300   0.009  -0.005  -0.014   0.015  -0.009  -0.024
  0.005   0.009  -3.241  -0.006  -0.000  -5.813  -0.010  -0.001
 -0.003  -0.005  -0.006  -3.245  -0.001  -0.010  -5.819  -0.001
 -0.008  -0.014  -0.000  -0.001  -3.241  -0.001  -0.001  -5.812
  0.009   0.015  -5.813  -0.010  -0.001 -10.403  -0.018  -0.001
 -0.005  -0.009  -0.010  -5.819  -0.001  -0.018 -10.414  -0.002
 -0.015  -0.024  -0.001  -0.001  -5.812  -0.001  -0.002 -10.401
 total augmentation occupancy for first ion, spin component:           1
  8.000  -2.913   1.677  -1.298   0.438  -0.796   0.616  -0.216
 -2.913   1.151  -0.863   0.663  -0.184   0.395  -0.306   0.109
  1.677  -0.863   5.649  -2.290   1.092  -1.844   0.909  -0.511
 -1.298   0.663  -2.290   4.588  -1.394   0.909  -1.442   0.620
  0.438  -0.184   1.092  -1.394   7.902  -0.512   0.621  -2.833
 -0.796   0.395  -1.844   0.909  -0.512   0.630  -0.362   0.235
  0.616  -0.306   0.909  -1.442   0.621  -0.362   0.478  -0.272
 -0.216   0.109  -0.511   0.620  -2.833   0.235  -0.272   1.041


------------------------ aborting loop because EDIFF is reached ----------------------------------------


    FORLOC:  cpu time      0.0166: real time      0.0166
    FORNL :  cpu time      0.0092: real time      0.0095
    FORCOR:  cpu time      7.3075: real time      7.3100
    OFIELD:  cpu time      0.0034: real time      0.0039

 VOLUME and BASIS-vectors are now :
 -----------------------------------------------------------------------------
  energy-cutoff  :     1000.00
  volume of cell :     8000.00
      direct lattice vectors                 reciprocal lattice vectors
    20.000000000  0.000000000  0.000000000     0.050000000  0.000000000  0.000000000
     0.000000000 20.000000000  0.000000000     0.000000000  0.050000000  0.000000000
     0.000000000  0.000000000 20.000000000     0.000000000  0.000000000  0.050000000

  length of vectors
    20.000000000 20.000000000 20.000000000     0.050000000  0.050000000  0.050000000


 FORCES acting on ions:
    Electron-Ion                     Ewald-Force                    Non-Local-Force
 -----------------------------------------------------------------------------------------------
   -.147E+02 0.119E+03 -.864E+02   0.198E+02 -.121E+03 0.878E+02   -.531E+01 0.250E+01 -.131E+01
   0.581E+02 0.486E+02 -.438E+02   -.625E+02 -.533E+02 0.479E+02   0.434E+01 0.471E+01 -.409E+01
   0.528E+02 -.585E+02 0.365E+02   -.561E+02 0.642E+02 -.404E+02   0.322E+01 -.571E+01 0.379E+01
   -.267E+02 0.575E+02 -.396E+02   0.287E+02 -.619E+02 0.426E+02   -.197E+01 0.433E+01 -.299E+01
   0.175E+03 0.550E+01 -.225E+02   -.173E+03 -.559E+01 0.216E+02   -.171E+01 0.104E+00 0.849E+00
   -.209E+03 -.147E+03 0.133E+03   0.243E+03 0.178E+03 -.160E+03   -.347E+02 -.308E+02 0.268E+02
 -----------------------------------------------------------------------------------------------
   0.361E+02 0.248E+02 -.230E+02   0.568E-13 0.000E+00 -.284E-13   -.361E+02 -.248E+02 0.230E+02


 POSITION                                       TOTAL-FORCE (eV/Angst)
 -----------------------------------------------------------------------------------
     10.58759      9.98113     10.01158         0.023533     -0.074749      0.055634
      8.65930      9.49550     10.60397        -0.029670     -0.029387      0.023915
      8.79391     10.88372      9.55515        -0.018055      0.026519     -0.019603
     10.94198      9.11628     10.61297         0.013843     -0.043626      0.029068
      9.23423     10.12246     10.05831        -0.104277      0.014425      0.004597
     11.34070     10.70746      9.38703         0.114625      0.106819     -0.093610
 -----------------------------------------------------------------------------------
    total drift:                                0.000143      0.000241     -0.000275


--------------------------------------------------------------------------------------------------------



  FREE ENERGIE OF THE ION-ELECTRON SYSTEM (eV)
  ---------------------------------------------------
  free  energy   TOTEN  =       -30.44227999 eV

  energy  without entropy=      -30.44227999  energy(sigma->0) =      -30.44227999



--------------------------------------------------------------------------------------------------------


    POTLOK:  cpu time      7.2023: real time      7.2045


--------------------------------------------------------------------------------------------------------


 stress matrix after NEB project (eV)
      0.00000      0.00000      0.00000
      0.00000      0.00000      0.00000
      0.00000      0.00000      0.00000
  FORCES: max atom, RMS     0.182516    0.100267
  FORCE total and by dimension    0.245603    0.114625
  Stress total and by dimension    0.000000    0.000000
     LOOP+:  cpu time    275.8056: real time    276.1972
    4ORBIT:  cpu time      0.0000: real time      0.0000

 total amount of memory used by VASP MPI-rank0    55343. kBytes
=======================================================================

   base      :      30000. kBytes
   nonl-proj :        792. kBytes
   fftplans  :       7836. kBytes
   grid      :      16282. kBytes
   one-center:          1. kBytes
   wavefun   :        432. kBytes

  
  
 General timing and accounting informations for this job:
 ========================================================
  
                  Total CPU time used (sec):      323.269
                            User time (sec):      318.973
                          System time (sec):        4.296
                         Elapsed time (sec):      342.288
  
                   Maximum memory used (kb):      408292.
                   Average memory used (kb):          N/A
  
                          Minor page faults:       218652
                          Major page faults:          283
                 Voluntary context switches:        11269
