 vasp.6.4.1 05Apr23 (build Jun  6 2023 14:46:38) gamma-only                      
 executed on        HPECrayEX_GCC date 2024.08.21  18:38:58
 running  512 mpi-ranks, with    1 threads/rank, on    4 nodes
 distrk:  each k-point on  256 cores,    2 groups
 distr:  one band on NCORE=  32 cores,    8 groups


--------------------------------------------------------------------------------------------------------


 INCAR:
   ALGO = Conjugate
   KPAR = 2
   NCORE = 32
   PREC = Accurate
   EDIFF = 1E-7
   ENCUT = 1000
   ISMEAR = 0
   SIGMA = 0.01
   ISIF = 0
   GGA = PE
   IVDW = 202
   LVDWEXPANSION = .TRUE.
   LWAVE = .FALSE.
   LCHARG = .FALSE.
   SYMPREC = 1E-7
   LWAVE = .FALSE.
   LCHARG = .FALSE.

 POTCAR:    PAW_PBE C_h 06Feb2004                 
 POTCAR:    PAW_PBE H_h 06Feb2004                 
 POTCAR:    PAW_PBE N_h 06Feb2004                 
 POTCAR:    PAW_PBE O_h 06Feb2004                 
 POTCAR:    PAW_PBE C_h 06Feb2004                 
   VRHFIN =C: s2p2                                                                                  
   LEXCH  = PE                                                                                      
   EATOM  =   147.1560 eV,   10.8157 Ry                                                             
                                                                                                    
   TITEL  = PAW_PBE C_h 06Feb2004                                                                   
   LULTRA =        F    use ultrasoft PP ?                                                          
   IUNSCR =        1    unscreen: 0-lin 1-nonlin 2-no                                               
   RPACOR =    0.800    partial core radius                                                         
   POMASS =   12.011; ZVAL   =    4.000    mass and valenz                                          
   RCORE  =    1.100    outmost cutoff radius                                                       
   RWIGS  =    1.630; RWIGS  =    0.863    wigner-seitz radius (au A)                               
   ENMAX  =  700.000; ENMIN  =  500.000 eV                                                          
   ICORE  =        2    local potential                                                             
   LCOR   =        T    correct aug charges                                                         
   LPAW   =        T    paw PP                                                                      
   EAUG   =  946.768                                                                                
   DEXC   =    0.000                                                                                
   RMAX   =    1.128    core radius for proj-oper                                                   
   RAUG   =    1.300    factor for augmentation sphere                                              
   RDEP   =    1.162    radius for radial grids                                                     
   RDEPT  =    1.088    core radius for aug-charge                                                  
                                                                                                    
   Atomic configuration                                                                             
    4 entries                                                                                       
     n  l   j            E        occ.                                                              
     1  0  0.50      -273.3789   2.0000                                                             
     2  0  0.50       -13.7508   2.0000                                                             
     2  1  0.50        -5.2854   2.0000                                                             
     3  2  1.50        -5.4423   0.0000                                                             
   Description                                                                                      
     l       E           TYP  RCUT    TYP  RCUT                                                     
     0    -13.7508458     23  1.100                                                                 
     0     -8.2022199     23  1.100                                                                 
     1     -5.2854383     23  1.100                                                                 
     1      1.1560700     23  1.100                                                                 
     2     -5.4423304      7  1.100                                                                 
  local pseudopotential read in
  partial core-charges read in
  partial kinetic energy density read in
  atomic valenz-charges read in
  non local Contribution for L=           0  read in
    real space projection operators read in
  non local Contribution for L=           0  read in
    real space projection operators read in
  non local Contribution for L=           1  read in
    real space projection operators read in
  non local Contribution for L=           1  read in
    real space projection operators read in
    PAW grid and wavefunctions read in

   number of l-projection  operators is LMAX  =           4
   number of lm-projection operators is LMMAX =           8

 POTCAR:    PAW_PBE H_h 06Feb2004                 
   VRHFIN =H: ultrasoft test                                                                        
   LEXCH  = PE                                                                                      
   EATOM  =    12.4884 eV,    0.9179 Ry                                                             
                                                                                                    
   TITEL  = PAW_PBE H_h 06Feb2004                                                                   
   LULTRA =        F    use ultrasoft PP ?                                                          
   IUNSCR =        0    unscreen: 0-lin 1-nonlin 2-no                                               
   RPACOR =    0.000    partial core radius                                                         
   POMASS =    1.000; ZVAL   =    1.000    mass and valenz                                          
   RCORE  =    0.800    outmost cutoff radius                                                       
   RWIGS  =    0.700; RWIGS  =    0.370    wigner-seitz radius (au A)                               
   ENMAX  =  700.000; ENMIN  =  350.000 eV                                                          
   RCLOC  =    0.701    cutoff for local pot                                                        
   LCOR   =        T    correct aug charges                                                         
   LPAW   =        T    paw PP                                                                      
   EAUG   = 1000.000                                                                                
   RMAX   =    0.819    core radius for proj-oper                                                   
   RAUG   =    1.000    factor for augmentation sphere                                              
   RDEP   =    0.817    radius for radial grids                                                     
   RDEPT  =    0.817    core radius for aug-charge                                                  
                                                                                                    
   Atomic configuration                                                                             
    2 entries                                                                                       
     n  l   j            E        occ.                                                              
     1  0  0.50        -6.4927   1.0000                                                             
     2  1  0.50        -3.4015   0.0000                                                             
   Description                                                                                      
     l       E           TYP  RCUT    TYP  RCUT                                                     
     0     -6.4927493     23  0.800                                                                 
     0      6.8029130     23  0.800                                                                 
     1     -6.8029130     23  0.800                                                                 
  local pseudopotential read in
  atomic valenz-charges read in
  non local Contribution for L=           0  read in
    real space projection operators read in
  non local Contribution for L=           0  read in
    real space projection operators read in
  non local Contribution for L=           1  read in
    real space projection operators read in
    PAW grid and wavefunctions read in

   number of l-projection  operators is LMAX  =           3
   number of lm-projection operators is LMMAX =           5

 POTCAR:    PAW_PBE N_h 06Feb2004                 
   VRHFIN =N: s2p3                                                                                  
   LEXCH  = PE                                                                                      
   EATOM  =   264.5486 eV,   19.4438 Ry                                                             
                                                                                                    
   TITEL  = PAW_PBE N_h 06Feb2004                                                                   
   LULTRA =        F    use ultrasoft PP ?                                                          
   IUNSCR =        1    unscreen: 0-lin 1-nonlin 2-no                                               
   RPACOR =    0.800    partial core radius                                                         
   POMASS =   14.001; ZVAL   =    5.000    mass and valenz                                          
   RCORE  =    1.100    outmost cutoff radius                                                       
   RWIGS  =    1.480; RWIGS  =    0.783    wigner-seitz radius (au A)                               
   ENMAX  =  700.000; ENMIN  =  500.000 eV                                                          
   ICORE  =        2    local potential                                                             
   LCOR   =        T    correct aug charges                                                         
   LPAW   =        T    paw PP                                                                      
   EAUG   =  904.640                                                                                
   DEXC   =    0.000                                                                                
   RMAX   =    1.127    core radius for proj-oper                                                   
   RAUG   =    1.300    factor for augmentation sphere                                              
   RDEP   =    1.115    radius for radial grids                                                     
   RDEPT  =    1.106    core radius for aug-charge                                                  
                                                                                                    
   Atomic configuration                                                                             
    4 entries                                                                                       
     n  l   j            E        occ.                                                              
     1  0  0.50      -384.7179   2.0000                                                             
     2  0  0.50       -18.5828   2.0000                                                             
     2  1  0.50        -7.0898   3.0000                                                             
     3  2  1.50        -6.8029   0.0000                                                             
   Description                                                                                      
     l       E           TYP  RCUT    TYP  RCUT                                                     
     0    -18.5828117     23  1.100                                                                 
     0    -15.0750597     23  1.100                                                                 
     1     -7.0897851     23  1.100                                                                 
     1     -1.9663412     23  1.100                                                                 
     2     -6.8029130      7  1.100                                                                 
  local pseudopotential read in
  partial core-charges read in
  partial kinetic energy density read in
  kinetic energy density of atom read in
  atomic valenz-charges read in
  non local Contribution for L=           0  read in
    real space projection operators read in
  non local Contribution for L=           0  read in
    real space projection operators read in
  non local Contribution for L=           1  read in
    real space projection operators read in
  non local Contribution for L=           1  read in
    real space projection operators read in
    PAW grid and wavefunctions read in

   number of l-projection  operators is LMAX  =           4
   number of lm-projection operators is LMMAX =           8

 POTCAR:    PAW_PBE O_h 06Feb2004                 
   VRHFIN =O: s2p4                                                                                  
   LEXCH  = PE                                                                                      
   EATOM  =   432.3788 eV,   31.7789 Ry                                                             
                                                                                                    
   TITEL  = PAW_PBE O_h 06Feb2004                                                                   
   LULTRA =        F    use ultrasoft PP ?                                                          
   IUNSCR =        1    unscreen: 0-lin 1-nonlin 2-no                                               
   RPACOR =    0.800    partial core radius                                                         
   POMASS =   16.000; ZVAL   =    6.000    mass and valenz                                          
   RCORE  =    1.100    outmost cutoff radius                                                       
   RWIGS  =    1.400; RWIGS  =    0.741    wigner-seitz radius (au A)                               
   ENMAX  =  700.000; ENMIN  =  500.000 eV                                                          
   ICORE  =        2    local potential                                                             
   LCOR   =        T    correct aug charges                                                         
   LPAW   =        T    paw PP                                                                      
   EAUG   =  888.804                                                                                
   DEXC   =    0.000                                                                                
   RMAX   =    1.128    core radius for proj-oper                                                   
   RAUG   =    1.300    factor for augmentation sphere                                              
   RDEP   =    1.125    radius for radial grids                                                     
   RDEPT  =    1.088    core radius for aug-charge                                                  
                                                                                                    
   Atomic configuration                                                                             
    4 entries                                                                                       
     n  l   j            E        occ.                                                              
     1  0  0.50      -514.6923   2.0000                                                             
     2  0  0.50       -23.9615   2.0000                                                             
     2  1  0.50        -9.0305   4.0000                                                             
     3  2  1.50        -9.5241   0.0000                                                             
   Description                                                                                      
     l       E           TYP  RCUT    TYP  RCUT                                                     
     0    -23.9615319     23  1.100                                                                 
     0    -25.3221145     23  1.100                                                                 
     1     -9.0304911     23  1.100                                                                 
     1     -5.4802209     23  1.100                                                                 
     2     -9.5240782      7  1.100                                                                 
  local pseudopotential read in
  partial core-charges read in
  partial kinetic energy density read in
  atomic valenz-charges read in
  non local Contribution for L=           0  read in
    real space projection operators read in
  non local Contribution for L=           0  read in
    real space projection operators read in
  non local Contribution for L=           1  read in
    real space projection operators read in
  non local Contribution for L=           1  read in
    real space projection operators read in
    PAW grid and wavefunctions read in

   number of l-projection  operators is LMAX  =           4
   number of lm-projection operators is LMMAX =           8

  PAW_PBE C_h 06Feb2004                 :
 energy of atom  1       EATOM= -147.1560
 kinetic energy error for atom=    0.0031 (will be added to EATOM!!)
  PAW_PBE H_h 06Feb2004                 :
 energy of atom  2       EATOM=  -12.4884
 kinetic energy error for atom=    0.0006 (will be added to EATOM!!)
  PAW_PBE N_h 06Feb2004                 :
 energy of atom  3       EATOM= -264.5486
 kinetic energy error for atom=    0.0081 (will be added to EATOM!!)
  PAW_PBE O_h 06Feb2004                 :
 energy of atom  4       EATOM= -432.3788
 kinetic energy error for atom=    0.0171 (will be added to EATOM!!)


 POSCAR:  C  H  N  O
  positions in cartesian coordinates
  No initial velocities read in
 exchange correlation table for  LEXCH =        8
   RHO(1)=    0.500       N(1)  =     2000
   RHO(2)=  100.500       N(2)  =     4000

 VTST: version 4.1, (05/19/21)

 CHAIN: initializing optimizer
 
 OPT: Using VASP Dynamics algorithm
 CHAIN: Read ICHAIN            0

 POSCAR:  C  H  N  O
  positions in cartesian coordinates
  No initial velocities read in



--------------------------------------------------------------------------------------------------------


 ion  position               nearest neighbor table
   1  0.529  0.499  0.501-   4 1.11   6 1.22   5 1.36
   2  0.433  0.475  0.530-   5 1.01
   3  0.440  0.544  0.478-   5 1.01
   4  0.547  0.456  0.531-   1 1.11
   5  0.462  0.506  0.503-   2 1.01   3 1.01   1 1.36
   6  0.567  0.535  0.469-   1 1.22

  LATTYP: Found a simple cubic cell.
 ALAT       =    20.0000000000
  
  Lattice vectors:
  
 A1 = (  20.0000000000,   0.0000000000,   0.0000000000)
 A2 = (   0.0000000000,  20.0000000000,   0.0000000000)
 A3 = (   0.0000000000,   0.0000000000,  20.0000000000)


Analysis of symmetry for initial positions (statically):
=====================================================================
 Subroutine PRICEL returns:
 Original cell was already a primitive cell.
 

 Routine SETGRP: Setting up the symmetry group for a 
 simple cubic supercell.


 Subroutine GETGRP returns: Found  1 space group operations
 (whereof  1 operations were pure point group operations)
 out of a pool of 48 trial point group operations.


The static configuration has the point symmetry C_1 .


Analysis of symmetry for dynamics (positions and initial velocities):
=====================================================================
 Subroutine PRICEL returns:
 Original cell was already a primitive cell.
 

 Routine SETGRP: Setting up the symmetry group for a 
 simple cubic supercell.


 Subroutine GETGRP returns: Found  1 space group operations
 (whereof  1 operations were pure point group operations)
 out of a pool of 48 trial point group operations.


The dynamic configuration has the point symmetry C_1 .


 Subroutine INISYM returns: Found  1 space group operations
 (whereof  1 operations are pure point group operations),
 and found     1 'primitive' translations


----------------------------------------------------------------------------------------

                                     Primitive cell                                     

  volume of cell :    8000.0000

  direct lattice vectors                    reciprocal lattice vectors
    20.000000000  0.000000000  0.000000000     0.050000000  0.000000000  0.000000000
     0.000000000 20.000000000  0.000000000     0.000000000  0.050000000  0.000000000
     0.000000000  0.000000000 20.000000000     0.000000000  0.000000000  0.050000000

  length of vectors
    20.000000000 20.000000000 20.000000000     0.050000000  0.050000000  0.050000000

  position of ions in fractional coordinates (direct lattice)
     0.529379500  0.499056500  0.500579000
     0.432965000  0.474775000  0.530198500
     0.439695500  0.544186000  0.477757500
     0.547099000  0.455814000  0.530648500
     0.461711500  0.506123000  0.502915500
     0.567035000  0.535373000  0.469351500

  ion indices of the primitive-cell ions
   primitive index   ion index
                 1           1
                 2           2
                 3           3
                 4           4
                 5           5
                 6           6

----------------------------------------------------------------------------------------



 KPOINTS: auto                                    

Automatic generation of k-mesh.
 Grid dimensions read from file:
 generate k-points for:    1    1    1

 Generating k-lattice:

  Cartesian coordinates                     Fractional coordinates (reciprocal lattice)
     0.050000000  0.000000000  0.000000000     1.000000000  0.000000000  0.000000000
     0.000000000  0.050000000  0.000000000     0.000000000  1.000000000  0.000000000
     0.000000000  0.000000000  0.050000000     0.000000000  0.000000000  1.000000000

  Length of vectors
     0.050000000  0.050000000  0.050000000

  Shift w.r.t. Gamma in fractional coordinates (k-lattice)
     0.000000000  0.000000000  0.000000000

 
 Subroutine IBZKPT returns following result:
 ===========================================
 
 Found      1 irreducible k-points:
 
 Following reciprocal coordinates:
            Coordinates               Weight
  0.000000  0.000000  0.000000      1.000000
 
 Following cartesian coordinates:
            Coordinates               Weight
  0.000000  0.000000  0.000000      1.000000
 


--------------------------------------------------------------------------------------------------------




 Dimension of arrays:
   k-points           NKPTS =      1   k-points in BZ     NKDIM =      1   number of bands    NBANDS=     16
   number of dos      NEDOS =    301   number of ions     NIONS =      6
   non local maximal  LDIM  =      4   non local SUM 2l+1 LMDIM =      8
   total plane-waves  NPLWV = ******
   max r-space proj   IRMAX =      1   max aug-charges    IRDMAX=   8641
   dimension x,y,z NGX =   210 NGY =  210 NGZ =  210
   dimension x,y,z NGXF=   420 NGYF=  420 NGZF=  420
   support grid    NGXF=   420 NGYF=  420 NGZF=  420
   ions per type =               1   3   1   1
   NGX,Y,Z   is equivalent  to a cutoff of  17.46, 17.46, 17.46 a.u.
   NGXF,Y,Z  is equivalent  to a cutoff of  34.91, 34.91, 34.91 a.u.

 SYSTEM =  unknown system                          
 POSCAR =   C  H  N  O                             

 Startparameter for this run:
   NWRITE =      2    write-flag & timer
   PREC   = accura    normal or accurate (medium, high low for compatibility)
   ISTART =      0    job   : 0-new  1-cont  2-samecut
   ICHARG =      2    charge: 1-file 2-atom 10-const
   ISPIN  =      1    spin polarized calculation?
   LNONCOLLINEAR =      F non collinear calculations
   LSORBIT =      F    spin-orbit coupling
   INIWAV =      1    electr: 0-lowe 1-rand  2-diag
   LASPH  =      F    aspherical Exc in radial PAW
 Electronic Relaxation 1
   ENCUT  = 1000.0 eV  73.50 Ry    8.57 a.u.  51.57 51.57 51.57*2*pi/ulx,y,z
   ENINI  = 1000.0     initial cutoff
   ENAUG  = 1000.0 eV  augmentation charge cutoff
   NELM   =     60;   NELMIN=  2; NELMDL= -5     # of ELM steps 
   EDIFF  = 0.1E-06   stopping-criterion for ELM
   LREAL  =      F    real-space projection
   NLSPLINE    = F    spline interpolate recip. space projectors
   LCOMPAT=      F    compatible to vasp.4.4
   GGA_COMPAT  = T    GGA compatible to vasp.4.4-vasp.4.6
   LMAXPAW     = -100 max onsite density
   LMAXMIX     =    2 max onsite mixed and CHGCAR
   VOSKOWN=      0    Vosko Wilk Nusair interpolation
   ROPT   =    0.00000   0.00000   0.00000   0.00000
 Ionic relaxation
   EDIFFG = 0.1E-05   stopping-criterion for IOM
   NSW    =      0    number of steps for IOM
   NBLOCK =      1;   KBLOCK =      1    inner block; outer block 
   IBRION =     -1    ionic relax: 0-MD 1-quasi-New 2-CG
   NFREE  =      0    steps in history (QN), initial steepest desc. (CG)
   ISIF   =      0    stress and relaxation
   IWAVPR =     10    prediction:  0-non 1-charg 2-wave 3-comb
   ISYM   =      2    0-nonsym 1-usesym 2-fastsym
   LCORR  =      T    Harris-Foulkes like correction to forces

   POTIM  = 0.5000    time-step for ionic-motion
   TEIN   =    0.0    initial temperature
   TEBEG  =    0.0;   TEEND  =   0.0 temperature during run
   SMASS  =  -3.00    Nose mass-parameter (am)
   estimated Nose-frequenzy (Omega)   =  0.10E-29 period in steps = 0.13E+47 mass=  -0.914E-26a.u.
   SCALEE = 1.0000    scale energy and forces
   NPACO  =    256;   APACO  = 10.0  distance and # of slots for P.C.
   PSTRESS=    0.0 pullay stress

  Mass of Ions in am
   POMASS =  12.01  1.00 14.00 16.00
  Ionic Valenz
   ZVAL   =   4.00  1.00  5.00  6.00
  Atomic Wigner-Seitz radii
   RWIGS  =  -1.00 -1.00 -1.00 -1.00
  virtual crystal weights 
   VCA    =   1.00  1.00  1.00  1.00
   NELECT =      18.0000    total number of electrons
   NUPDOWN=      -1.0000    fix difference up-down

 DOS related values:
   EMIN   =  10.00;   EMAX   =-10.00  energy-range for DOS
   EFERMI =   0.00;   METHOD = LEGACY      
   ISMEAR =     0;   SIGMA  =   0.01  broadening in eV -4-tet -1-fermi 0-gaus

 Electronic relaxation 2 (details)
   IALGO  =     58    algorithm
   LDIAG  =      T    sub-space diagonalisation (order eigenvalues)
   LSUBROT=      F    optimize rotation matrix (better conditioning)
   TURBO    =      0    0=normal 1=particle mesh
   IRESTART =      0    0=no restart 2=restart with 2 vectors
   NREBOOT  =      0    no. of reboots
   NMIN     =      0    reboot dimension
   EREF     =   0.00    reference energy to select bands
   IMIX   =      4    mixing-type and parameters
     AMIX     =   0.40;   BMIX     =  1.00
     AMIX_MAG =   1.60;   BMIX_MAG =  1.00
     AMIN     =   0.10
     WC   =   100.;   INIMIX=   1;  MIXPRE=   1;  MAXMIX= -45

 Intra band minimization:
   WEIMIN = 0.0000     energy-eigenvalue tresh-hold
   EBREAK =  0.16E-08  absolut break condition
   DEPER  =   0.30     relativ break condition  

   TIME   =   0.40     timestep for ELM

  volume/ion in A,a.u.               =    1333.33      8997.78
  Fermi-wavevector in a.u.,A,eV,Ry     =   0.214521  0.405385  0.626128  0.046019
  Thomas-Fermi vector in A             =   0.987617

 Write flags
   LWAVE        =      F    write WAVECAR
   LDOWNSAMPLE  =      F    k-point downsampling of WAVECAR
   LCHARG       =      F    write CHGCAR
   LVTOT        =      F    write LOCPOT, total local potential
   LVHAR        =      F    write LOCPOT, Hartree potential only
   LELF         =      F    write electronic localiz. function (ELF)
   LORBIT       =      0    0 simple, 1 ext, 2 COOP (PROOUT), +10 PAW based schemes


 Dipole corrections
   LMONO  =      F    monopole corrections only (constant potential shift)
   LDIPOL =      F    correct potential (dipole corrections)
   IDIPOL =      0    1-x, 2-y, 3-z, 4-all directions 
   EPSILON=  1.0000000 bulk dielectric constant

 Exchange correlation treatment:
   GGA     =    PE    GGA type
   LEXCH   =     8    internal setting for exchange type
   LIBXC   =     F    Libxc                    
   VOSKOWN =     0    Vosko Wilk Nusair interpolation
   LHFCALC =     F    Hartree Fock is set to
   LHFONE  =     F    Hartree Fock one center treatment
   AEXX    =    0.0000 exact exchange contribution

 Linear response parameters
   LEPSILON=     F    determine dielectric tensor
   LRPA    =     F    only Hartree local field effects (RPA)
   LNABLA  =     F    use nabla operator in PAW spheres
   LVEL    =     F    velocity operator in full k-point grid
   CSHIFT  =0.1000    complex shift for real part using Kramers Kronig
   OMEGAMAX=  -1.0    maximum frequency
   DEG_THRESHOLD= 0.2000000E-02 threshold for treating states as degnerate
   RTIME   =   -0.100 relaxation time in fs
  (WPLASMAI=    0.000 imaginary part of plasma frequency in eV, 0.658/RTIME)
   DFIELD  = 0.0000000 0.0000000 0.0000000 field for delta impulse in time

  Optional k-point grid parameters
   LKPOINTS_OPT  =     F    use optional k-point grid
   KPOINTS_OPT_MODE=     1    mode for optional k-point grid

 Orbital magnetization related:
   ORBITALMAG=     F  switch on orbital magnetization
   LCHIMAG   =     F  perturbation theory with respect to B field
   DQ        =  0.001000  dq finite difference perturbation B field
   LLRAUG    =     F  two centre corrections for induced B field
   LBONE     =     F  B-component reconstruction in AE one-centre
   LVGVCALC  =     T  calculate vGv susceptibility
   LVGVAPPL  =     F  apply vGv susceptibility instead of pGv for G=0

 Random number generation:
   RANDOM_GENERATOR = DEFAULT
   PCG_SEED         = not used


--------------------------------------------------------------------------------------------------------


 Static calculation
 charge density and potential will be updated during run
 non-spin polarized calculation
 Conjugate gradient for all bands (Freysoldt, et al. PRB 79, 241103 (2009))
 preconditioned conjugated gradient                                        
 perform sub-space diagonalisation
    before iterative eigenvector-optimisation
 modified Broyden-mixing scheme, WC =      100.0
 initial mixing is a Kerker type mixing with AMIX =  0.4000 and BMIX =      1.0000
 Hartree-type preconditioning will be used
 using additional bands            7
 reciprocal scheme for non local part
 use partial core corrections
 no Harris-corrections to forces 
 use gradient corrections 
 use of overlap-Matrix (Vanderbilt PP)
 Gauss-broadening in eV      SIGMA  =   0.01


--------------------------------------------------------------------------------------------------------


  energy-cutoff  :     1000.00
  volume of cell :     8000.00
      direct lattice vectors                 reciprocal lattice vectors
    20.000000000  0.000000000  0.000000000     0.050000000  0.000000000  0.000000000
     0.000000000 20.000000000  0.000000000     0.000000000  0.050000000  0.000000000
     0.000000000  0.000000000 20.000000000     0.000000000  0.000000000  0.050000000

  length of vectors
    20.000000000 20.000000000 20.000000000     0.050000000  0.050000000  0.050000000



 k-points in units of 2pi/SCALE and weight: auto                                    
   0.00000000  0.00000000  0.00000000       1.000

 k-points in reciprocal lattice and weights: auto                                    
   0.00000000  0.00000000  0.00000000       1.000

 position of ions in fractional coordinates (direct lattice) 
   0.52937950  0.49905650  0.50057900
   0.43296500  0.47477500  0.53019850
   0.43969550  0.54418600  0.47775750
   0.54709900  0.45581400  0.53064850
   0.46171150  0.50612300  0.50291550
   0.56703500  0.53537300  0.46935150

 position of ions in cartesian coordinates  (Angst):
  10.58759000  9.98113000 10.01158000
   8.65930000  9.49550000 10.60397000
   8.79391000 10.88372000  9.55515000
  10.94198000  9.11628000 10.61297000
   9.23423000 10.12246000 10.05831000
  11.34070000 10.70746000  9.38703000



--------------------------------------------------------------------------------------------------------


 use parallel FFT for orbitals z direction half grid
 k-point   1 :   0.0000 0.0000 0.0000  plane waves:  287166

 maximum and minimum number of plane-waves per node :      8979     8970

 maximum number of plane-waves:    287166
 maximum index in each direction: 
   IXMAX=   51   IYMAX=   51   IZMAX=   51
   IXMIN=  -51   IYMIN=  -51   IZMIN=    0


 parallel 3D FFT for wavefunctions:
    minimum data exchange during FFTs selected (reduces bandwidth)
 parallel 3D FFT for charge:
    minimum data exchange during FFTs selected (reduces bandwidth)


 total amount of memory used by VASP MPI-rank0    89737. kBytes
=======================================================================

   base      :      30000. kBytes
   nonl-proj :       3162. kBytes
   fftplans  :      17846. kBytes
   grid      :      37867. kBytes
   one-center:          1. kBytes
   wavefun   :        861. kBytes

     INWAV:  cpu time      0.0001: real time      0.0002
 Broyden mixing: mesh for mixing (old mesh)
   NGX =103   NGY =103   NGZ =103
  (NGX  =420   NGY  =420   NGZ  =420)
  gives a total of ****** points

 initial charge density was supplied:
 charge density of overlapping atoms calculated
 number of electron      18.0000000 magnetization 
 keeping initial charge density in first step


--------------------------------------------------------------------------------------------------------


 Maximum index for augmentation-charges            0 (set IRDMAX)


--------------------------------------------------------------------------------------------------------


 First call to EWALD:  gamma=   0.089
 Maximum number of real-space cells 3x 3x 3
 Maximum number of reciprocal cells 3x 3x 3

    FEWALD:  cpu time      0.0015: real time      0.0015


--------------------------------------- Ionic step        1  -------------------------------------------




--------------------------------------- Iteration      1(   1)  ---------------------------------------


    POTLOK:  cpu time      0.4311: real time      0.4322
    SETDIJ:  cpu time      0.0080: real time      0.0081
    TRIAL :  cpu time      0.3310: real time      0.3338
    CORREC:  cpu time      0.0025: real time      0.0025
    --------------------------------------------
      LOOP:  cpu time      0.7795: real time      0.7837

 eigenvalue-minimisations  :    48
 total energy-change (2. order) : 0.1567954E+03  (-0.4396947E+03)
 number of electron      18.0000000 magnetization 
 augmentation part       18.0000000 magnetization 

 Free energy of the ion-electron system (eV)
  ---------------------------------------------------
  alpha Z        PSCENC =         0.11561839
  Ewald energy   TEWEN  =       762.02411429
  -Hartree energ DENC   =     -1422.65886329
  -exchange      EXHF   =         0.00000000
  -V(xc)+E(xc)   XCENC  =        56.47733495
  PAW double counting   =       671.28659658     -665.93431517
  entropy T*S    EENTRO =        -0.00000000
  eigenvalues    EBANDS =      -126.03353866
  atomic energy  EATOM  =       881.51845861
  ---------------------------------------------------
  free energy    TOTEN  =       156.79540570 eV

  energy without entropy =      156.79540570  energy(sigma->0) =      156.79540570


--------------------------------------------------------------------------------------------------------




--------------------------------------- Iteration      1(   2)  ---------------------------------------


    TRIAL :  cpu time      0.3450: real time      0.3451
    CORREC:  cpu time      0.0001: real time      0.0001
    --------------------------------------------
      LOOP:  cpu time      0.3685: real time      0.3832

 eigenvalue-minimisations  :    56
 total energy-change (2. order) :-0.9378090E+02  (-0.8891702E+02)
 number of electron      18.0000000 magnetization 
 augmentation part       18.0000000 magnetization 

 Free energy of the ion-electron system (eV)
  ---------------------------------------------------
  alpha Z        PSCENC =         0.11561839
  Ewald energy   TEWEN  =       762.02411429
  -Hartree energ DENC   =     -1422.65886329
  -exchange      EXHF   =         0.00000000
  -V(xc)+E(xc)   XCENC  =        56.47733495
  PAW double counting   =       671.28659658     -665.93431517
  entropy T*S    EENTRO =        -0.00000000
  eigenvalues    EBANDS =      -219.81444187
  atomic energy  EATOM  =       881.51845861
  ---------------------------------------------------
  free energy    TOTEN  =        63.01450250 eV

  energy without entropy =       63.01450250  energy(sigma->0) =       63.01450250


--------------------------------------------------------------------------------------------------------




--------------------------------------- Iteration      1(   3)  ---------------------------------------


    TRIAL :  cpu time      0.3331: real time      0.3336
    CORREC:  cpu time      0.0001: real time      0.0001
    --------------------------------------------
      LOOP:  cpu time      0.3463: real time      0.3678

 eigenvalue-minimisations  :    56
 total energy-change (2. order) :-0.8111048E+02  (-0.8058042E+02)
 number of electron      18.0000000 magnetization 
 augmentation part       18.0000000 magnetization 

 Free energy of the ion-electron system (eV)
  ---------------------------------------------------
  alpha Z        PSCENC =         0.11561839
  Ewald energy   TEWEN  =       762.02411429
  -Hartree energ DENC   =     -1422.65886329
  -exchange      EXHF   =         0.00000000
  -V(xc)+E(xc)   XCENC  =        56.47733495
  PAW double counting   =       671.28659658     -665.93431517
  entropy T*S    EENTRO =        -0.00000000
  eigenvalues    EBANDS =      -300.92492118
  atomic energy  EATOM  =       881.51845861
  ---------------------------------------------------
  free energy    TOTEN  =       -18.09597681 eV

  energy without entropy =      -18.09597681  energy(sigma->0) =      -18.09597681


--------------------------------------------------------------------------------------------------------




--------------------------------------- Iteration      1(   4)  ---------------------------------------


    TRIAL :  cpu time      0.2255: real time      0.2257
    CORREC:  cpu time      0.0001: real time      0.0001
    --------------------------------------------
      LOOP:  cpu time      0.2549: real time      0.2552

 eigenvalue-minimisations  :    32
 total energy-change (2. order) :-0.2006932E+02  (-0.2005119E+02)
 number of electron      18.0000000 magnetization 
 augmentation part       18.0000000 magnetization 

 Free energy of the ion-electron system (eV)
  ---------------------------------------------------
  alpha Z        PSCENC =         0.11561839
  Ewald energy   TEWEN  =       762.02411429
  -Hartree energ DENC   =     -1422.65886329
  -exchange      EXHF   =         0.00000000
  -V(xc)+E(xc)   XCENC  =        56.47733495
  PAW double counting   =       671.28659658     -665.93431517
  entropy T*S    EENTRO =        -0.00000000
  eigenvalues    EBANDS =      -320.99424367
  atomic energy  EATOM  =       881.51845861
  ---------------------------------------------------
  free energy    TOTEN  =       -38.16529930 eV

  energy without entropy =      -38.16529930  energy(sigma->0) =      -38.16529930


--------------------------------------------------------------------------------------------------------




--------------------------------------- Iteration      1(   5)  ---------------------------------------


    TRIAL :  cpu time      0.3347: real time      0.3347
    CORREC:  cpu time      0.0001: real time      0.0001
    CHARGE:  cpu time      0.1285: real time      0.1300
    --------------------------------------------
      LOOP:  cpu time      0.4759: real time      0.4946

 eigenvalue-minimisations  :    56
 total energy-change (2. order) :-0.9899932E+00  (-0.9839930E+00)
 number of electron      18.0000000 magnetization 
 augmentation part        0.0854348 magnetization 

 Free energy of the ion-electron system (eV)
  ---------------------------------------------------
  alpha Z        PSCENC =         0.11561839
  Ewald energy   TEWEN  =       762.02411429
  -Hartree energ DENC   =     -1422.65886329
  -exchange      EXHF   =         0.00000000
  -V(xc)+E(xc)   XCENC  =        56.47733495
  PAW double counting   =       671.28659658     -665.93431517
  entropy T*S    EENTRO =        -0.00000000
  eigenvalues    EBANDS =      -321.98423682
  atomic energy  EATOM  =       881.51845861
  ---------------------------------------------------
  free energy    TOTEN  =       -39.15529246 eV

  energy without entropy =      -39.15529246  energy(sigma->0) =      -39.15529246


--------------------------------------------------------------------------------------------------------




--------------------------------------- Iteration      1(   6)  ---------------------------------------


    POTLOK:  cpu time      0.4313: real time      0.4317
    SETDIJ:  cpu time      0.0017: real time      0.0017
    TRIAL :  cpu time      0.1755: real time      0.1766
    CORREC:  cpu time      0.5892: real time      0.5907
    CHARGE:  cpu time      0.0965: real time      0.0966
    --------------------------------------------
      LOOP:  cpu time      1.3079: real time      1.3287

 eigenvalue-minimisations  :     0
 total energy-change (2. order) : 0.8262702E+01  (-0.3762243E+01)
 number of electron      18.0000000 magnetization 
 augmentation part        0.0547469 magnetization 

 Free energy of the ion-electron system (eV)
  ---------------------------------------------------
  alpha Z        PSCENC =         0.11561839
  Ewald energy   TEWEN  =       762.02411429
  -Hartree energ DENC   =     -1580.50933001
  -exchange      EXHF   =         0.00000000
  -V(xc)+E(xc)   XCENC  =        63.94883106
  PAW double counting   =      6920.32269721    -6916.18697964
  entropy T*S    EENTRO =        -0.00000000
  eigenvalues    EBANDS =      -162.12600005
  atomic energy  EATOM  =       881.51845861
  ---------------------------------------------------
  free energy    TOTEN  =       -30.89259014 eV

  energy without entropy =      -30.89259014  energy(sigma->0) =      -30.89259014


--------------------------------------------------------------------------------------------------------




--------------------------------------- Iteration      1(   7)  ---------------------------------------


    POTLOK:  cpu time      0.4324: real time      0.4325
    SETDIJ:  cpu time      0.0026: real time      0.0026
    TRIAL :  cpu time      0.1604: real time      0.1604
    CORREC:  cpu time      0.5794: real time      0.5798
    CHARGE:  cpu time      0.0963: real time      0.0964
    --------------------------------------------
      LOOP:  cpu time      1.2998: real time      1.3007

 eigenvalue-minimisations  :     0
 total energy-change (2. order) :-0.3842477E+01  (-0.4151115E+00)
 number of electron      18.0000000 magnetization 
 augmentation part        0.0335349 magnetization 

 Free energy of the ion-electron system (eV)
  ---------------------------------------------------
  alpha Z        PSCENC =         0.11561839
  Ewald energy   TEWEN  =       762.02411429
  -Hartree energ DENC   =     -1503.61708396
  -exchange      EXHF   =         0.00000000
  -V(xc)+E(xc)   XCENC  =        60.32643579
  PAW double counting   =      8784.10190269    -8779.36022747
  entropy T*S    EENTRO =        -0.00000000
  eigenvalues    EBANDS =      -239.84428554
  atomic energy  EATOM  =       881.51845861
  ---------------------------------------------------
  free energy    TOTEN  =       -34.73506719 eV

  energy without entropy =      -34.73506719  energy(sigma->0) =      -34.73506719


--------------------------------------------------------------------------------------------------------




--------------------------------------- Iteration      1(   8)  ---------------------------------------


    POTLOK:  cpu time      0.4321: real time      0.4322
    SETDIJ:  cpu time      0.0023: real time      0.0023
    TRIAL :  cpu time      0.1585: real time      0.1591
    CORREC:  cpu time      0.5790: real time      0.5791
    CHARGE:  cpu time      0.0963: real time      0.0965
    --------------------------------------------
      LOOP:  cpu time      1.2836: real time      1.3000

 eigenvalue-minimisations  :     0
 total energy-change (2. order) :-0.4158071E+00  (-0.1646269E+00)
 number of electron      18.0000000 magnetization 
 augmentation part        0.0301203 magnetization 

 Free energy of the ion-electron system (eV)
  ---------------------------------------------------
  alpha Z        PSCENC =         0.11561839
  Ewald energy   TEWEN  =       762.02411429
  -Hartree energ DENC   =     -1500.76258278
  -exchange      EXHF   =         0.00000000
  -V(xc)+E(xc)   XCENC  =        60.20720351
  PAW double counting   =      8862.75550801    -8857.90639649
  entropy T*S    EENTRO =        -0.00000000
  eigenvalues    EBANDS =      -243.10279781
  atomic energy  EATOM  =       881.51845861
  ---------------------------------------------------
  free energy    TOTEN  =       -35.15087427 eV

  energy without entropy =      -35.15087427  energy(sigma->0) =      -35.15087427


--------------------------------------------------------------------------------------------------------




--------------------------------------- Iteration      1(   9)  ---------------------------------------


    POTLOK:  cpu time      0.4333: real time      0.4339
    SETDIJ:  cpu time      0.0010: real time      0.0010
    TRIAL :  cpu time      0.1612: real time      0.1612
    CORREC:  cpu time      0.5789: real time      0.5791
    CHARGE:  cpu time      0.0962: real time      0.0969
    --------------------------------------------
      LOOP:  cpu time      1.2863: real time      1.3016

 eigenvalue-minimisations  :     0
 total energy-change (2. order) :-0.1637618E+00  (-0.7085269E-01)
 number of electron      18.0000000 magnetization 
 augmentation part        0.0313865 magnetization 

 Free energy of the ion-electron system (eV)
  ---------------------------------------------------
  alpha Z        PSCENC =         0.11561839
  Ewald energy   TEWEN  =       762.02411429
  -Hartree energ DENC   =     -1500.55751797
  -exchange      EXHF   =         0.00000000
  -V(xc)+E(xc)   XCENC  =        60.19369079
  PAW double counting   =      8965.45047135    -8960.57381361
  entropy T*S    EENTRO =        -0.00000000
  eigenvalues    EBANDS =      -243.48565788
  atomic energy  EATOM  =       881.51845861
  ---------------------------------------------------
  free energy    TOTEN  =       -35.31463604 eV

  energy without entropy =      -35.31463604  energy(sigma->0) =      -35.31463604


--------------------------------------------------------------------------------------------------------




--------------------------------------- Iteration      1(  10)  ---------------------------------------


    POTLOK:  cpu time      0.4323: real time      0.4325
    SETDIJ:  cpu time      0.0022: real time      0.0022
    TRIAL :  cpu time      0.1596: real time      0.1597
    CORREC:  cpu time      0.5791: real time      0.5795
    CHARGE:  cpu time      0.0966: real time      0.0967
    --------------------------------------------
      LOOP:  cpu time      1.2987: real time      1.2996

 eigenvalue-minimisations  :     0
 total energy-change (2. order) :-0.7039378E-01  (-0.2368660E-01)
 number of electron      18.0000000 magnetization 
 augmentation part        0.0318916 magnetization 

 Free energy of the ion-electron system (eV)
  ---------------------------------------------------
  alpha Z        PSCENC =         0.11561839
  Ewald energy   TEWEN  =       762.02411429
  -Hartree energ DENC   =     -1499.24177210
  -exchange      EXHF   =         0.00000000
  -V(xc)+E(xc)   XCENC  =        60.15477361
  PAW double counting   =      8814.43605079    -8809.56323239
  entropy T*S    EENTRO =        -0.00000000
  eigenvalues    EBANDS =      -244.82904102
  atomic energy  EATOM  =       881.51845861
  ---------------------------------------------------
  free energy    TOTEN  =       -35.38502981 eV

  energy without entropy =      -35.38502981  energy(sigma->0) =      -35.38502981


--------------------------------------------------------------------------------------------------------




--------------------------------------- Iteration      1(  11)  ---------------------------------------


    POTLOK:  cpu time      0.4294: real time      0.4296
    SETDIJ:  cpu time      0.0053: real time      0.0053
    TRIAL :  cpu time      0.1605: real time      0.1606
    CORREC:  cpu time      0.5770: real time      0.5776
    CHARGE:  cpu time      0.0960: real time      0.0961
    --------------------------------------------
      LOOP:  cpu time      1.2820: real time      1.2997

 eigenvalue-minimisations  :     0
 total energy-change (2. order) :-0.2359208E-01  (-0.7242117E-02)
 number of electron      18.0000000 magnetization 
 augmentation part        0.0320792 magnetization 

 Free energy of the ion-electron system (eV)
  ---------------------------------------------------
  alpha Z        PSCENC =         0.11561839
  Ewald energy   TEWEN  =       762.02411429
  -Hartree energ DENC   =     -1498.28707961
  -exchange      EXHF   =         0.00000000
  -V(xc)+E(xc)   XCENC  =        60.12362534
  PAW double counting   =      8649.58902210    -8644.72308221
  entropy T*S    EENTRO =        -0.00000000
  eigenvalues    EBANDS =      -245.76929881
  atomic energy  EATOM  =       881.51845861
  ---------------------------------------------------
  free energy    TOTEN  =       -35.40862189 eV

  energy without entropy =      -35.40862189  energy(sigma->0) =      -35.40862189


--------------------------------------------------------------------------------------------------------




--------------------------------------- Iteration      1(  12)  ---------------------------------------


    POTLOK:  cpu time      0.4264: real time      0.4268
    SETDIJ:  cpu time      0.0030: real time      0.0030
    TRIAL :  cpu time      0.1602: real time      0.1602
    CORREC:  cpu time      0.5667: real time      0.5669
    CHARGE:  cpu time      0.0960: real time      0.0960
    --------------------------------------------
      LOOP:  cpu time      1.2747: real time      1.2943

 eigenvalue-minimisations  :     0
 total energy-change (2. order) :-0.7225102E-02  (-0.2106120E-02)
 number of electron      18.0000000 magnetization 
 augmentation part        0.0321744 magnetization 

 Free energy of the ion-electron system (eV)
  ---------------------------------------------------
  alpha Z        PSCENC =         0.11561839
  Ewald energy   TEWEN  =       762.02411429
  -Hartree energ DENC   =     -1498.01427621
  -exchange      EXHF   =         0.00000000
  -V(xc)+E(xc)   XCENC  =        60.10925038
  PAW double counting   =      8605.03389294    -8600.17069064
  entropy T*S    EENTRO =        -0.00000000
  eigenvalues    EBANDS =      -246.03221475
  atomic energy  EATOM  =       881.51845861
  ---------------------------------------------------
  free energy    TOTEN  =       -35.41584699 eV

  energy without entropy =      -35.41584699  energy(sigma->0) =      -35.41584699


--------------------------------------------------------------------------------------------------------




--------------------------------------- Iteration      1(  13)  ---------------------------------------


    POTLOK:  cpu time      0.4234: real time      0.4238
    SETDIJ:  cpu time      0.0033: real time      0.0033
    TRIAL :  cpu time      0.1612: real time      0.1612
    CORREC:  cpu time      0.5608: real time      0.5612
    CHARGE:  cpu time      0.0961: real time      0.0962
    --------------------------------------------
      LOOP:  cpu time      1.2576: real time      1.2752

 eigenvalue-minimisations  :     0
 total energy-change (2. order) :-0.2104665E-02  (-0.5860290E-03)
 number of electron      18.0000000 magnetization 
 augmentation part        0.0320182 magnetization 

 Free energy of the ion-electron system (eV)
  ---------------------------------------------------
  alpha Z        PSCENC =         0.11561839
  Ewald energy   TEWEN  =       762.02411429
  -Hartree energ DENC   =     -1498.01023014
  -exchange      EXHF   =         0.00000000
  -V(xc)+E(xc)   XCENC  =        60.10815481
  PAW double counting   =      8618.65049295    -8613.78898670
  entropy T*S    EENTRO =        -0.00000000
  eigenvalues    EBANDS =      -246.03557387
  atomic energy  EATOM  =       881.51845861
  ---------------------------------------------------
  free energy    TOTEN  =       -35.41795166 eV

  energy without entropy =      -35.41795166  energy(sigma->0) =      -35.41795166


--------------------------------------------------------------------------------------------------------




--------------------------------------- Iteration      1(  14)  ---------------------------------------


    POTLOK:  cpu time      0.4169: real time      0.4171
    SETDIJ:  cpu time      0.0057: real time      0.0057
    TRIAL :  cpu time      0.1594: real time      0.1595
    CORREC:  cpu time      0.5677: real time      0.5682
    CHARGE:  cpu time      0.0957: real time      0.0958
    --------------------------------------------
      LOOP:  cpu time      1.2596: real time      1.2774

 eigenvalue-minimisations  :     0
 total energy-change (2. order) :-0.5860322E-03  (-0.1746006E-03)
 number of electron      18.0000000 magnetization 
 augmentation part        0.0320015 magnetization 

 Free energy of the ion-electron system (eV)
  ---------------------------------------------------
  alpha Z        PSCENC =         0.11561839
  Ewald energy   TEWEN  =       762.02411429
  -Hartree energ DENC   =     -1497.85333347
  -exchange      EXHF   =         0.00000000
  -V(xc)+E(xc)   XCENC  =        60.09989780
  PAW double counting   =      8631.63589174    -8626.77321708
  entropy T*S    EENTRO =        -0.00000000
  eigenvalues    EBANDS =      -246.18596797
  atomic energy  EATOM  =       881.51845861
  ---------------------------------------------------
  free energy    TOTEN  =       -35.41853769 eV

  energy without entropy =      -35.41853769  energy(sigma->0) =      -35.41853769


--------------------------------------------------------------------------------------------------------




--------------------------------------- Iteration      1(  15)  ---------------------------------------


    POTLOK:  cpu time      0.4119: real time      0.4120
    SETDIJ:  cpu time      0.0032: real time      0.0032
    TRIAL :  cpu time      0.1593: real time      0.1597
    CORREC:  cpu time      0.5567: real time      0.5570
    CHARGE:  cpu time      0.0958: real time      0.0958
    --------------------------------------------
      LOOP:  cpu time      1.2583: real time      1.2593

 eigenvalue-minimisations  :     0
 total energy-change (2. order) :-0.1744934E-03  (-0.5635347E-04)
 number of electron      18.0000000 magnetization 
 augmentation part        0.0319894 magnetization 

 Free energy of the ion-electron system (eV)
  ---------------------------------------------------
  alpha Z        PSCENC =         0.11561839
  Ewald energy   TEWEN  =       762.02411429
  -Hartree energ DENC   =     -1497.97523706
  -exchange      EXHF   =         0.00000000
  -V(xc)+E(xc)   XCENC  =        60.10439022
  PAW double counting   =      8630.05482361    -8625.19275980
  entropy T*S    EENTRO =        -0.00000000
  eigenvalues    EBANDS =      -246.06812044
  atomic energy  EATOM  =       881.51845861
  ---------------------------------------------------
  free energy    TOTEN  =       -35.41871218 eV

  energy without entropy =      -35.41871218  energy(sigma->0) =      -35.41871218


--------------------------------------------------------------------------------------------------------




--------------------------------------- Iteration      1(  16)  ---------------------------------------


    POTLOK:  cpu time      0.4114: real time      0.4118
    SETDIJ:  cpu time      0.0026: real time      0.0026
    TRIAL :  cpu time      0.1602: real time      0.1603
    CORREC:  cpu time      0.5552: real time      0.5554
    CHARGE:  cpu time      0.0971: real time      0.0977
    --------------------------------------------
      LOOP:  cpu time      1.2434: real time      1.2590

 eigenvalue-minimisations  :     0
 total energy-change (2. order) :-0.5648755E-04  (-0.1872596E-04)
 number of electron      18.0000000 magnetization 
 augmentation part        0.0320269 magnetization 

 Free energy of the ion-electron system (eV)
  ---------------------------------------------------
  alpha Z        PSCENC =         0.11561839
  Ewald energy   TEWEN  =       762.02411429
  -Hartree energ DENC   =     -1497.95026926
  -exchange      EXHF   =         0.00000000
  -V(xc)+E(xc)   XCENC  =        60.10235055
  PAW double counting   =      8625.19987306    -8620.33754316
  entropy T*S    EENTRO =        -0.00000000
  eigenvalues    EBANDS =      -246.09137116
  atomic energy  EATOM  =       881.51845861
  ---------------------------------------------------
  free energy    TOTEN  =       -35.41876867 eV

  energy without entropy =      -35.41876867  energy(sigma->0) =      -35.41876867


--------------------------------------------------------------------------------------------------------




--------------------------------------- Iteration      1(  17)  ---------------------------------------


    POTLOK:  cpu time      0.4092: real time      0.4094
    SETDIJ:  cpu time      0.0016: real time      0.0016
    TRIAL :  cpu time      0.1599: real time      0.1600
    CORREC:  cpu time      0.5563: real time      0.5567
    CHARGE:  cpu time      0.0962: real time      0.0964
    --------------------------------------------
      LOOP:  cpu time      1.2363: real time      1.2547

 eigenvalue-minimisations  :     0
 total energy-change (2. order) :-0.1880239E-04  (-0.6131058E-05)
 number of electron      18.0000000 magnetization 
 augmentation part        0.0320319 magnetization 

 Free energy of the ion-electron system (eV)
  ---------------------------------------------------
  alpha Z        PSCENC =         0.11561839
  Ewald energy   TEWEN  =       762.02411429
  -Hartree energ DENC   =     -1497.98474366
  -exchange      EXHF   =         0.00000000
  -V(xc)+E(xc)   XCENC  =        60.10377896
  PAW double counting   =      8620.86870474    -8616.00666451
  entropy T*S    EENTRO =        -0.00000000
  eigenvalues    EBANDS =      -246.05805431
  atomic energy  EATOM  =       881.51845861
  ---------------------------------------------------
  free energy    TOTEN  =       -35.41878747 eV

  energy without entropy =      -35.41878747  energy(sigma->0) =      -35.41878747


--------------------------------------------------------------------------------------------------------




--------------------------------------- Iteration      1(  18)  ---------------------------------------


    POTLOK:  cpu time      0.4101: real time      0.4102
    SETDIJ:  cpu time      0.0029: real time      0.0029
    TRIAL :  cpu time      0.1598: real time      0.1598
    CORREC:  cpu time      0.5559: real time      0.5565
    CHARGE:  cpu time      0.0966: real time      0.0967
    --------------------------------------------
      LOOP:  cpu time      1.2559: real time      1.2570

 eigenvalue-minimisations  :     0
 total energy-change (2. order) :-0.6166555E-05  (-0.2040525E-05)
 number of electron      18.0000000 magnetization 
 augmentation part        0.0320404 magnetization 

 Free energy of the ion-electron system (eV)
  ---------------------------------------------------
  alpha Z        PSCENC =         0.11561839
  Ewald energy   TEWEN  =       762.02411429
  -Hartree energ DENC   =     -1497.98542902
  -exchange      EXHF   =         0.00000000
  -V(xc)+E(xc)   XCENC  =        60.10377933
  PAW double counting   =      8619.98354999    -8615.12144493
  entropy T*S    EENTRO =        -0.00000000
  eigenvalues    EBANDS =      -246.05744030
  atomic energy  EATOM  =       881.51845861
  ---------------------------------------------------
  free energy    TOTEN  =       -35.41879364 eV

  energy without entropy =      -35.41879364  energy(sigma->0) =      -35.41879364


--------------------------------------------------------------------------------------------------------




--------------------------------------- Iteration      1(  19)  ---------------------------------------


    POTLOK:  cpu time      0.4073: real time      0.4074
    SETDIJ:  cpu time      0.0031: real time      0.0031
    TRIAL :  cpu time      0.1595: real time      0.1600
    CORREC:  cpu time      0.5554: real time      0.5557
    CHARGE:  cpu time      0.0966: real time      0.0967
    --------------------------------------------
      LOOP:  cpu time      1.2354: real time      1.2529

 eigenvalue-minimisations  :     0
 total energy-change (2. order) :-0.2047776E-05  (-0.6561632E-06)
 number of electron      18.0000000 magnetization 
 augmentation part        0.0320380 magnetization 

 Free energy of the ion-electron system (eV)
  ---------------------------------------------------
  alpha Z        PSCENC =         0.11561839
  Ewald energy   TEWEN  =       762.02411429
  -Hartree energ DENC   =     -1497.99228315
  -exchange      EXHF   =         0.00000000
  -V(xc)+E(xc)   XCENC  =        60.10416161
  PAW double counting   =      8620.82576020    -8615.96368032
  entropy T*S    EENTRO =        -0.00000000
  eigenvalues    EBANDS =      -246.05094531
  atomic energy  EATOM  =       881.51845861
  ---------------------------------------------------
  free energy    TOTEN  =       -35.41879569 eV

  energy without entropy =      -35.41879569  energy(sigma->0) =      -35.41879569


--------------------------------------------------------------------------------------------------------




--------------------------------------- Iteration      1(  20)  ---------------------------------------


    POTLOK:  cpu time      0.4076: real time      0.4081
    SETDIJ:  cpu time      0.0024: real time      0.0024
    TRIAL :  cpu time      0.1599: real time      0.1600
    CORREC:  cpu time      0.5569: real time      0.5570
    CHARGE:  cpu time      0.0952: real time      0.0955
    --------------------------------------------
      LOOP:  cpu time      1.2359: real time      1.2549

 eigenvalue-minimisations  :     0
 total energy-change (2. order) :-0.6561349E-06  (-0.2471720E-06)
 number of electron      18.0000000 magnetization 
 augmentation part        0.0320419 magnetization 

 Free energy of the ion-electron system (eV)
  ---------------------------------------------------
  alpha Z        PSCENC =         0.11561839
  Ewald energy   TEWEN  =       762.02411429
  -Hartree energ DENC   =     -1497.98912556
  -exchange      EXHF   =         0.00000000
  -V(xc)+E(xc)   XCENC  =        60.10405221
  PAW double counting   =      8621.78839750    -8616.92625375
  entropy T*S    EENTRO =        -0.00000000
  eigenvalues    EBANDS =      -246.05405804
  atomic energy  EATOM  =       881.51845861
  ---------------------------------------------------
  free energy    TOTEN  =       -35.41879634 eV

  energy without entropy =      -35.41879634  energy(sigma->0) =      -35.41879634


--------------------------------------------------------------------------------------------------------




--------------------------------------- Iteration      1(  21)  ---------------------------------------


    POTLOK:  cpu time      0.4075: real time      0.4076
    SETDIJ:  cpu time      0.0029: real time      0.0029
    TRIAL :  cpu time      0.1602: real time      0.1603
    CORREC:  cpu time      0.5548: real time      0.5554
    CHARGE:  cpu time      0.0966: real time      0.0967
    --------------------------------------------
      LOOP:  cpu time      1.2557: real time      1.2567

 eigenvalue-minimisations  :     0
 total energy-change (2. order) :-0.2413335E-06  (-0.8626152E-07)
 number of electron      18.0000000 magnetization 
 augmentation part        0.0320392 magnetization 

 Free energy of the ion-electron system (eV)
  ---------------------------------------------------
  alpha Z        PSCENC =         0.11561839
  Ewald energy   TEWEN  =       762.02411429
  -Hartree energ DENC   =     -1497.99391361
  -exchange      EXHF   =         0.00000000
  -V(xc)+E(xc)   XCENC  =        60.10432260
  PAW double counting   =      8622.27465001    -8617.41254286
  entropy T*S    EENTRO =        -0.00000000
  eigenvalues    EBANDS =      -246.04950401
  atomic energy  EATOM  =       881.51845861
  ---------------------------------------------------
  free energy    TOTEN  =       -35.41879658 eV

  energy without entropy =      -35.41879658  energy(sigma->0) =      -35.41879658


--------------------------------------------------------------------------------------------------------




--------------------------------------- Iteration      1(  22)  ---------------------------------------


    POTLOK:  cpu time      0.4063: real time      0.4064
    SETDIJ:  cpu time      0.0040: real time      0.0040
    TRIAL :  cpu time      0.1596: real time      0.1596
    CORREC:  cpu time      0.5541: real time      0.5545
    EDDIAG:  cpu time      0.0735: real time      0.0751
    CHARGE:  cpu time      0.0958: real time      0.0959
    --------------------------------------------
      LOOP:  cpu time      1.3073: real time      1.3260

 eigenvalue-minimisations  :     0
 total energy-change (2. order) :-0.8641291E-07  (-0.4820880E-07)
 number of electron      18.0000000 magnetization 
 augmentation part        0.0320403 magnetization 

 Free energy of the ion-electron system (eV)
  ---------------------------------------------------
  alpha Z        PSCENC =         0.11561839
  Ewald energy   TEWEN  =       762.02411429
  -Hartree energ DENC   =     -1497.98952875
  -exchange      EXHF   =         0.00000000
  -V(xc)+E(xc)   XCENC  =        60.10412724
  PAW double counting   =      8622.39988044    -8617.53773692
  entropy T*S    EENTRO =        -0.00000000
  eigenvalues    EBANDS =      -246.05372997
  atomic energy  EATOM  =       881.51845861
  ---------------------------------------------------
  free energy    TOTEN  =       -35.41879667 eV

  energy without entropy =      -35.41879667  energy(sigma->0) =      -35.41879667


--------------------------------------------------------------------------------------------------------


  average scaling for gradient   1.1469


 average (electrostatic) potential at core
  the test charge radii are     0.5770  0.4325  0.5902  0.5955
  (the norm of the test charge is              1.0000)
       1 -88.5622       2 -47.7511       3 -47.5828       4 -45.4576       5-104.6151
       6-118.8046



 E-fermi :  -5.9005     XC(G=0):  -0.1330     alpha+bet : -0.0451

 Fermi energy:        -5.9005287149

 k-point     1 :       0.0000    0.0000    0.0000
  band No.  band energies     occupation 
      1     -25.9655      2.00000
      2     -22.8420      2.00000
      3     -15.6347      2.00000
      4     -13.8978      2.00000
      5     -11.8483      2.00000
      6     -10.0300      2.00000
      7     -10.0191      2.00000
      8      -6.7777      2.00000
      9      -6.0112      2.00000
     10      -0.8582      0.00000
     11      -0.8100      0.00000
     12      -0.1572      0.00000
     13       0.0654      0.00000
     14       0.2591      0.00000
     15       0.3034      0.00000
     16       0.3927      0.00000


--------------------------------------------------------------------------------------------------------


 soft charge-density along one line, spin component           1
         0         1         2         3         4         5         6         7         8         9
 total charge-density along one line

 pseudopotential strength for first ion, spin component:           1
 12.807  21.554   0.005  -0.003  -0.008   0.010  -0.006  -0.014
 21.554  36.275   0.009  -0.005  -0.013   0.016  -0.009  -0.024
  0.005   0.009  -3.215  -0.001  -0.001  -5.767  -0.002  -0.001
 -0.003  -0.005  -0.001  -3.216   0.000  -0.002  -5.768   0.001
 -0.008  -0.013  -0.001   0.000  -3.216  -0.001   0.001  -5.768
  0.010   0.016  -5.767  -0.002  -0.001 -10.320  -0.003  -0.002
 -0.006  -0.009  -0.002  -5.768   0.001  -0.003 -10.322   0.001
 -0.014  -0.024  -0.001   0.001  -5.768  -0.002   0.001 -10.322
 total augmentation occupancy for first ion, spin component:           1
  8.516  -3.152   1.699  -1.316   0.457  -0.810   0.628  -0.222
 -3.152   1.250  -0.876   0.674  -0.190   0.404  -0.313   0.110
  1.699  -0.876   5.940  -2.346   1.103  -1.973   0.939  -0.518
 -1.316   0.674  -2.346   4.850  -1.417   0.939  -1.556   0.633
  0.457  -0.190   1.103  -1.417   8.246  -0.519   0.634  -2.993
 -0.810   0.404  -1.973   0.939  -0.519   0.682  -0.377   0.239
  0.628  -0.313   0.939  -1.556   0.634  -0.377   0.522  -0.279
 -0.222   0.110  -0.518   0.633  -2.993   0.239  -0.279   1.110


------------------------ aborting loop because EDIFF is reached ----------------------------------------


    FORLOC:  cpu time      0.0262: real time      0.0262
    FORNL :  cpu time      0.0130: real time      0.0133
    FORCOR:  cpu time      0.3586: real time      0.3591
    OFIELD:  cpu time      0.0053: real time      0.0057

  Hirshfeld charges:
            ion         q(e)     
   ------------------------------
      1     C        0.11296933
      2     H        0.13478053
      3     H        0.13843512
      4     H        0.04185515
      5     N       -0.15048028
      6     O       -0.27755985

  Atomic reference data used in the T-S method for vdW correction:
            C6at              R0at           ALPHAat      REFSTATE
            (au)              (au)            (au)                
   ---------------------------------------------------------------
   C          46.600          3.590         12.000         0
   H           6.500          3.099          4.500         0
   N          24.200          3.345          7.400         0
   O          15.600          3.194          5.400         0
 
 Nth order contribution to Edisp (eV)
 Edisp(N=2):  -4.6143123880358440E-002
 Edisp(N=3):   1.8984965153880996E-004
 Edisp(N=4):  -9.5093437551734298E-005
 Edisp(N=5):   4.8764779805104883E-007
 Edisp(N=6):  -3.8318949110258430E-007
 Edisp(N=inf):  -4.6048263530678729E-002

  Tkatchenko/Scheffler method for vdW energy calculation
  ---------------------------------------------------------------------------------------------

  Parameters of vdW forcefield:
            C6ts              R0ts          ALPHAts         R0scs        ALPHAscs        RELVOL 
            (au)              (au)           (au)            (au)          (au)                 
   ---------------------------------------------------------------------------------------------
   C          30.438          3.344          9.698          3.414         10.320          0.808
   H           2.098          2.567          2.557          2.430          2.168          0.568
   H           2.321          2.610          2.689          2.436          2.185          0.598
   H           2.509          2.644          2.796          2.375          2.025          0.621
   N          15.919          3.119          6.002          3.138          6.113          0.811
   O          15.248          3.182          5.339          3.041          4.663          0.989

  vdW correction parametrized for the method pbe       

  IVDW = 202
  VDW_RADIUS =    50.000 A
  VDW_SR =     0.830
  VDW_D =     6.000
  SCSRAD =   120.000 A
  LVDWSCS = T
  LSCSGRAD = T
  LSCALER0 = T
  ITIM = -1
  Edisp (eV):   -0.04605
    FORVDW:  cpu time      8.9775: real time      8.9837

 VOLUME and BASIS-vectors are now :
 -----------------------------------------------------------------------------
  energy-cutoff  :     1000.00
  volume of cell :     8000.00
      direct lattice vectors                 reciprocal lattice vectors
    20.000000000  0.000000000  0.000000000     0.050000000  0.000000000  0.000000000
     0.000000000 20.000000000  0.000000000     0.000000000  0.050000000  0.000000000
     0.000000000  0.000000000 20.000000000     0.000000000  0.000000000  0.050000000

  length of vectors
    20.000000000 20.000000000 20.000000000     0.050000000  0.050000000  0.050000000


 FORCES acting on ions:
    Electron-Ion                     Ewald-Force                    Non-Local-Force
 -----------------------------------------------------------------------------------------------
   -.146E+02 0.119E+03 -.865E+02   0.198E+02 -.121E+03 0.878E+02   -.545E+01 0.245E+01 -.125E+01
   0.582E+02 0.486E+02 -.438E+02   -.625E+02 -.533E+02 0.479E+02   0.429E+01 0.466E+01 -.405E+01
   0.529E+02 -.585E+02 0.366E+02   -.561E+02 0.642E+02 -.404E+02   0.319E+01 -.565E+01 0.375E+01
   -.267E+02 0.575E+02 -.396E+02   0.287E+02 -.619E+02 0.426E+02   -.193E+01 0.425E+01 -.293E+01
   0.175E+03 0.551E+01 -.225E+02   -.173E+03 -.559E+01 0.216E+02   -.152E+01 0.662E-01 0.842E+00
   -.209E+03 -.147E+03 0.133E+03   0.243E+03 0.178E+03 -.160E+03   -.347E+02 -.307E+02 0.268E+02
 -----------------------------------------------------------------------------------------------
   0.361E+02 0.250E+02 -.231E+02   0.568E-13 0.000E+00 -.284E-13   -.361E+02 -.250E+02 0.231E+02


 POSITION                                       TOTAL-FORCE (eV/Angst)
 -----------------------------------------------------------------------------------
     10.58759      9.98113     10.01158        -0.054859      0.058380     -0.034801
      8.65930      9.49550     10.60397        -0.026751     -0.039204      0.030430
      8.79391     10.88372      9.55515        -0.011376      0.035822     -0.027669
     10.94198      9.11628     10.61297         0.019566     -0.078725      0.054517
      9.23423     10.12246     10.05831         0.018019     -0.012967      0.012308
     11.34070     10.70746      9.38703         0.055402      0.036693     -0.034785
 -----------------------------------------------------------------------------------
    total drift:                                0.000210      0.000394     -0.000376


--------------------------------------------------------------------------------------------------------



  FREE ENERGIE OF THE ION-ELECTRON SYSTEM (eV)
  ---------------------------------------------------
  free  energy   TOTEN  =       -35.46484493 eV

  energy  without entropy=      -35.46484493  energy(sigma->0) =      -35.46484493



--------------------------------------------------------------------------------------------------------


    POTLOK:  cpu time      0.4198: real time      0.4202


--------------------------------------------------------------------------------------------------------


 stress matrix after NEB project (eV)
     -0.01522     -0.00168      0.00285
     -0.00168     -0.00843      0.00632
      0.00285      0.00632     -0.00475
  FORCES: max atom, RMS     0.097737    0.069292
  FORCE total and by dimension    0.169730    0.078725
  Stress total and by dimension    0.020665    0.015222
     LOOP+:  cpu time     33.6501: real time     33.9418
    4ORBIT:  cpu time      0.0000: real time      0.0000

 total amount of memory used by VASP MPI-rank0    89737. kBytes
=======================================================================

   base      :      30000. kBytes
   nonl-proj :       3162. kBytes
   fftplans  :      17846. kBytes
   grid      :      37867. kBytes
   one-center:          1. kBytes
   wavefun   :        861. kBytes

  
  
 General timing and accounting informations for this job:
 ========================================================
  
                  Total CPU time used (sec):       56.903
                            User time (sec):       52.662
                          System time (sec):        4.241
                         Elapsed time (sec):       61.798
  
                   Maximum memory used (kb):      264828.
                   Average memory used (kb):          N/A
  
                          Minor page faults:       176216
                          Major page faults:          470
                 Voluntary context switches:         6811
