 vasp.6.4.1 05Apr23 (build Jun  6 2023 14:46:38) gamma-only                      
 executed on        HPECrayEX_GCC date 2024.08.21  11:37:44
 running  256 mpi-ranks, with    1 threads/rank, on    2 nodes
 distrk:  each k-point on  256 cores,    1 groups
 distr:  one band on NCORE=  64 cores,    4 groups


--------------------------------------------------------------------------------------------------------


 INCAR:
   ALGO = Conjugate
   NPAR = 4
   ISMEAR = 0
   SIGMA = 0.01
   PREC = Accurate
   EDIFF = 1E-7
   ENCUT = 1000
   ISIF = 0
   GGA = RE
   LUSE_VDW = .TRUE.
   AGGAC = 0.0000
   LASPH = .TRUE.
   LWAVE = .FALSE.
   LCHARG = .FALSE.

 POTCAR:    PAW_PBE C_h 06Feb2004                 
 POTCAR:    PAW_PBE H_h 06Feb2004                 
 POTCAR:    PAW_PBE N_h 06Feb2004                 
 POTCAR:    PAW_PBE O_h 06Feb2004                 
 -----------------------------------------------------------------------------
|                                                                             |
|               ----> ADVICE to this user running VASP <----                  |
|                                                                             |
|     You have switched on vdW-DFT.                                           |
|     This routine was written and supplied by Jiri Klimes. We recommend      |
|     that you carefully read and cite the following publications:            |
|       J. Klimes, D.R. Bowler, A. Michelides                                 |
|          J. Phys.: Cond Matt. 22 022201 (2010)                              |
|       J. Klimes, D.R. Bowler, A. Michelides                                 |
|          Phys. Rev. B. 83, 195131 (2011)                                    |
|     and references therein.                                                 |
|                                                                             |
 -----------------------------------------------------------------------------

 POTCAR:    PAW_PBE C_h 06Feb2004                 
   VRHFIN =C: s2p2                                                                                  
   LEXCH  = PE                                                                                      
   EATOM  =   147.1560 eV,   10.8157 Ry                                                             
                                                                                                    
   TITEL  = PAW_PBE C_h 06Feb2004                                                                   
   LULTRA =        F    use ultrasoft PP ?                                                          
   IUNSCR =        1    unscreen: 0-lin 1-nonlin 2-no                                               
   RPACOR =    0.800    partial core radius                                                         
   POMASS =   12.011; ZVAL   =    4.000    mass and valenz                                          
   RCORE  =    1.100    outmost cutoff radius                                                       
   RWIGS  =    1.630; RWIGS  =    0.863    wigner-seitz radius (au A)                               
   ENMAX  =  700.000; ENMIN  =  500.000 eV                                                          
   ICORE  =        2    local potential                                                             
   LCOR   =        T    correct aug charges                                                         
   LPAW   =        T    paw PP                                                                      
   EAUG   =  946.768                                                                                
   DEXC   =    0.000                                                                                
   RMAX   =    1.128    core radius for proj-oper                                                   
   RAUG   =    1.300    factor for augmentation sphere                                              
   RDEP   =    1.162    radius for radial grids                                                     
   RDEPT  =    1.088    core radius for aug-charge                                                  
                                                                                                    
   Atomic configuration                                                                             
    4 entries                                                                                       
     n  l   j            E        occ.                                                              
     1  0  0.50      -273.3789   2.0000                                                             
     2  0  0.50       -13.7508   2.0000                                                             
     2  1  0.50        -5.2854   2.0000                                                             
     3  2  1.50        -5.4423   0.0000                                                             
   Description                                                                                      
     l       E           TYP  RCUT    TYP  RCUT                                                     
     0    -13.7508458     23  1.100                                                                 
     0     -8.2022199     23  1.100                                                                 
     1     -5.2854383     23  1.100                                                                 
     1      1.1560700     23  1.100                                                                 
     2     -5.4423304      7  1.100                                                                 
  local pseudopotential read in
  partial core-charges read in
  partial kinetic energy density read in
  atomic valenz-charges read in
  non local Contribution for L=           0  read in
    real space projection operators read in
  non local Contribution for L=           0  read in
    real space projection operators read in
  non local Contribution for L=           1  read in
    real space projection operators read in
  non local Contribution for L=           1  read in
    real space projection operators read in
    PAW grid and wavefunctions read in

   number of l-projection  operators is LMAX  =           4
   number of lm-projection operators is LMMAX =           8

 POTCAR:    PAW_PBE H_h 06Feb2004                 
   VRHFIN =H: ultrasoft test                                                                        
   LEXCH  = PE                                                                                      
   EATOM  =    12.4884 eV,    0.9179 Ry                                                             
                                                                                                    
   TITEL  = PAW_PBE H_h 06Feb2004                                                                   
   LULTRA =        F    use ultrasoft PP ?                                                          
   IUNSCR =        0    unscreen: 0-lin 1-nonlin 2-no                                               
   RPACOR =    0.000    partial core radius                                                         
   POMASS =    1.000; ZVAL   =    1.000    mass and valenz                                          
   RCORE  =    0.800    outmost cutoff radius                                                       
   RWIGS  =    0.700; RWIGS  =    0.370    wigner-seitz radius (au A)                               
   ENMAX  =  700.000; ENMIN  =  350.000 eV                                                          
   RCLOC  =    0.701    cutoff for local pot                                                        
   LCOR   =        T    correct aug charges                                                         
   LPAW   =        T    paw PP                                                                      
   EAUG   = 1000.000                                                                                
   RMAX   =    0.819    core radius for proj-oper                                                   
   RAUG   =    1.000    factor for augmentation sphere                                              
   RDEP   =    0.817    radius for radial grids                                                     
   RDEPT  =    0.817    core radius for aug-charge                                                  
                                                                                                    
   Atomic configuration                                                                             
    2 entries                                                                                       
     n  l   j            E        occ.                                                              
     1  0  0.50        -6.4927   1.0000                                                             
     2  1  0.50        -3.4015   0.0000                                                             
   Description                                                                                      
     l       E           TYP  RCUT    TYP  RCUT                                                     
     0     -6.4927493     23  0.800                                                                 
     0      6.8029130     23  0.800                                                                 
     1     -6.8029130     23  0.800                                                                 
  local pseudopotential read in
  atomic valenz-charges read in
  non local Contribution for L=           0  read in
    real space projection operators read in
  non local Contribution for L=           0  read in
    real space projection operators read in
  non local Contribution for L=           1  read in
    real space projection operators read in
    PAW grid and wavefunctions read in

   number of l-projection  operators is LMAX  =           3
   number of lm-projection operators is LMMAX =           5

 POTCAR:    PAW_PBE N_h 06Feb2004                 
   VRHFIN =N: s2p3                                                                                  
   LEXCH  = PE                                                                                      
   EATOM  =   264.5486 eV,   19.4438 Ry                                                             
                                                                                                    
   TITEL  = PAW_PBE N_h 06Feb2004                                                                   
   LULTRA =        F    use ultrasoft PP ?                                                          
   IUNSCR =        1    unscreen: 0-lin 1-nonlin 2-no                                               
   RPACOR =    0.800    partial core radius                                                         
   POMASS =   14.001; ZVAL   =    5.000    mass and valenz                                          
   RCORE  =    1.100    outmost cutoff radius                                                       
   RWIGS  =    1.480; RWIGS  =    0.783    wigner-seitz radius (au A)                               
   ENMAX  =  700.000; ENMIN  =  500.000 eV                                                          
   ICORE  =        2    local potential                                                             
   LCOR   =        T    correct aug charges                                                         
   LPAW   =        T    paw PP                                                                      
   EAUG   =  904.640                                                                                
   DEXC   =    0.000                                                                                
   RMAX   =    1.127    core radius for proj-oper                                                   
   RAUG   =    1.300    factor for augmentation sphere                                              
   RDEP   =    1.115    radius for radial grids                                                     
   RDEPT  =    1.106    core radius for aug-charge                                                  
                                                                                                    
   Atomic configuration                                                                             
    4 entries                                                                                       
     n  l   j            E        occ.                                                              
     1  0  0.50      -384.7179   2.0000                                                             
     2  0  0.50       -18.5828   2.0000                                                             
     2  1  0.50        -7.0898   3.0000                                                             
     3  2  1.50        -6.8029   0.0000                                                             
   Description                                                                                      
     l       E           TYP  RCUT    TYP  RCUT                                                     
     0    -18.5828117     23  1.100                                                                 
     0    -15.0750597     23  1.100                                                                 
     1     -7.0897851     23  1.100                                                                 
     1     -1.9663412     23  1.100                                                                 
     2     -6.8029130      7  1.100                                                                 
  local pseudopotential read in
  partial core-charges read in
  partial kinetic energy density read in
  kinetic energy density of atom read in
  atomic valenz-charges read in
  non local Contribution for L=           0  read in
    real space projection operators read in
  non local Contribution for L=           0  read in
    real space projection operators read in
  non local Contribution for L=           1  read in
    real space projection operators read in
  non local Contribution for L=           1  read in
    real space projection operators read in
    PAW grid and wavefunctions read in

   number of l-projection  operators is LMAX  =           4
   number of lm-projection operators is LMMAX =           8

 POTCAR:    PAW_PBE O_h 06Feb2004                 
   VRHFIN =O: s2p4                                                                                  
   LEXCH  = PE                                                                                      
   EATOM  =   432.3788 eV,   31.7789 Ry                                                             
                                                                                                    
   TITEL  = PAW_PBE O_h 06Feb2004                                                                   
   LULTRA =        F    use ultrasoft PP ?                                                          
   IUNSCR =        1    unscreen: 0-lin 1-nonlin 2-no                                               
   RPACOR =    0.800    partial core radius                                                         
   POMASS =   16.000; ZVAL   =    6.000    mass and valenz                                          
   RCORE  =    1.100    outmost cutoff radius                                                       
   RWIGS  =    1.400; RWIGS  =    0.741    wigner-seitz radius (au A)                               
   ENMAX  =  700.000; ENMIN  =  500.000 eV                                                          
   ICORE  =        2    local potential                                                             
   LCOR   =        T    correct aug charges                                                         
   LPAW   =        T    paw PP                                                                      
   EAUG   =  888.804                                                                                
   DEXC   =    0.000                                                                                
   RMAX   =    1.128    core radius for proj-oper                                                   
   RAUG   =    1.300    factor for augmentation sphere                                              
   RDEP   =    1.125    radius for radial grids                                                     
   RDEPT  =    1.088    core radius for aug-charge                                                  
                                                                                                    
   Atomic configuration                                                                             
    4 entries                                                                                       
     n  l   j            E        occ.                                                              
     1  0  0.50      -514.6923   2.0000                                                             
     2  0  0.50       -23.9615   2.0000                                                             
     2  1  0.50        -9.0305   4.0000                                                             
     3  2  1.50        -9.5241   0.0000                                                             
   Description                                                                                      
     l       E           TYP  RCUT    TYP  RCUT                                                     
     0    -23.9615319     23  1.100                                                                 
     0    -25.3221145     23  1.100                                                                 
     1     -9.0304911     23  1.100                                                                 
     1     -5.4802209     23  1.100                                                                 
     2     -9.5240782      7  1.100                                                                 
  local pseudopotential read in
  partial core-charges read in
  partial kinetic energy density read in
  atomic valenz-charges read in
  non local Contribution for L=           0  read in
    real space projection operators read in
  non local Contribution for L=           0  read in
    real space projection operators read in
  non local Contribution for L=           1  read in
    real space projection operators read in
  non local Contribution for L=           1  read in
    real space projection operators read in
    PAW grid and wavefunctions read in

   number of l-projection  operators is LMAX  =           4
   number of lm-projection operators is LMMAX =           8

 -----------------------------------------------------------------------------
|                                                                             |
|               ----> ADVICE to this user running VASP <----                  |
|                                                                             |
|     You enforced a specific xc type in the INCAR file but a different       |
|     type was found in the POTCAR file.                                      |
|     I HOPE YOU KNOW WHAT YOU ARE DOING!                                     |
|                                                                             |
 -----------------------------------------------------------------------------

  PAW_PBE C_h 06Feb2004                 :
 energy of atom  1       EATOM= -147.1560
 kinetic energy error for atom=    0.0031 (will be added to EATOM!!)
  PAW_PBE H_h 06Feb2004                 :
 energy of atom  2       EATOM=  -12.4884
 kinetic energy error for atom=    0.0006 (will be added to EATOM!!)
  PAW_PBE N_h 06Feb2004                 :
 energy of atom  3       EATOM= -264.5486
 kinetic energy error for atom=    0.0081 (will be added to EATOM!!)
  PAW_PBE O_h 06Feb2004                 :
 energy of atom  4       EATOM= -432.3788
 kinetic energy error for atom=    0.0171 (will be added to EATOM!!)


 POSCAR:  C  H  N  O
  positions in cartesian coordinates
  No initial velocities read in
 exchange correlation table for  LEXCH =       40
   RHO(1)=    0.500       N(1)  =     2000
   RHO(2)=  100.500       N(2)  =     4000

 VTST: version 4.1, (05/19/21)

 CHAIN: initializing optimizer
 
 OPT: Using VASP Dynamics algorithm
 CHAIN: Read ICHAIN            0

 POSCAR:  C  H  N  O
  positions in cartesian coordinates
  No initial velocities read in



--------------------------------------------------------------------------------------------------------


 ion  position               nearest neighbor table
   1  0.450  0.512  0.529-  13 1.22  11 1.37  10 1.43
   2  0.527  0.473  0.489-  11 1.32  12 1.36   3 1.44
   3  0.549  0.523  0.468-   8 1.08   4 1.36   2 1.44
   4  0.518  0.567  0.480-   9 1.09  10 1.35   3 1.36
   5  0.448  0.594  0.518-  10 1.01
   6  0.541  0.393  0.497-  12 1.01
   7  0.593  0.428  0.463-  12 1.01
   8  0.587  0.526  0.445-   3 1.08
   9  0.530  0.607  0.466-   4 1.09
  10  0.471  0.562  0.509-   5 1.01   4 1.35   1 1.43
  11  0.481  0.468  0.517-   2 1.32   1 1.37
  12  0.555  0.427  0.478-   7 1.01   6 1.01   2 1.36
  13  0.407  0.511  0.555-   1 1.22

  LATTYP: Found a simple tetragonal cell.
 ALAT       =    25.0000000000
 C/A-ratio  =     0.8800000000
  
  Lattice vectors:
  
 A1 = (  25.0000000000,   0.0000000000,   0.0000000000)
 A2 = (   0.0000000000,  25.0000000000,   0.0000000000)
 A3 = (   0.0000000000,   0.0000000000,  22.0000000000)


Analysis of symmetry for initial positions (statically):
=====================================================================
 Subroutine PRICEL returns:
 Original cell was already a primitive cell.
 

 Routine SETGRP: Setting up the symmetry group for a 
 simple tetragonal supercell.


 Subroutine GETGRP returns: Found  1 space group operations
 (whereof  1 operations were pure point group operations)
 out of a pool of 16 trial point group operations.


The static configuration has the point symmetry C_1 .


Analysis of symmetry for dynamics (positions and initial velocities):
=====================================================================
 Subroutine PRICEL returns:
 Original cell was already a primitive cell.
 

 Routine SETGRP: Setting up the symmetry group for a 
 simple tetragonal supercell.


 Subroutine GETGRP returns: Found  1 space group operations
 (whereof  1 operations were pure point group operations)
 out of a pool of 16 trial point group operations.


The dynamic configuration has the point symmetry C_1 .


 Subroutine INISYM returns: Found  1 space group operations
 (whereof  1 operations are pure point group operations),
 and found     1 'primitive' translations


----------------------------------------------------------------------------------------

                                     Primitive cell                                     

  volume of cell :   13750.0000

  direct lattice vectors                    reciprocal lattice vectors
    25.000000000  0.000000000  0.000000000     0.040000000  0.000000000  0.000000000
     0.000000000 25.000000000  0.000000000     0.000000000  0.040000000  0.000000000
     0.000000000  0.000000000 22.000000000     0.000000000  0.000000000  0.045454545

  length of vectors
    25.000000000 25.000000000 22.000000000     0.040000000  0.040000000  0.045454545

  position of ions in fractional coordinates (direct lattice)
     0.449914400  0.511594200  0.529126591
     0.527198000  0.472777800  0.488758409
     0.548584800  0.522921800  0.468330682
     0.518292000  0.566995800  0.479733864
     0.447539600  0.594127400  0.517935227
     0.541128800  0.392851800  0.496748864
     0.593264800  0.428126200  0.463050682
     0.586578000  0.525890200  0.444781136
     0.530203600  0.607148200  0.466468409
     0.470853200  0.561887000  0.508833409
     0.480922000  0.467612600  0.517379773
     0.555025600  0.426965800  0.477677045
     0.406735200  0.511313400  0.555218864

  ion indices of the primitive-cell ions
   primitive index   ion index
                 1           1
                 2           2
                 3           3
                 4           4
                 5           5
                 6           6
                 7           7
                 8           8
                 9           9
                10          10
                11          11
                12          12
                13          13

----------------------------------------------------------------------------------------



 KPOINTS: auto                                    

Automatic generation of k-mesh.
 Grid dimensions read from file:
 generate k-points for:    1    1    1

 Generating k-lattice:

  Cartesian coordinates                     Fractional coordinates (reciprocal lattice)
     0.040000000  0.000000000  0.000000000     1.000000000  0.000000000  0.000000000
     0.000000000  0.040000000  0.000000000     0.000000000  1.000000000  0.000000000
     0.000000000  0.000000000  0.045454545     0.000000000  0.000000000  1.000000000

  Length of vectors
     0.040000000  0.040000000  0.045454545

  Shift w.r.t. Gamma in fractional coordinates (k-lattice)
     0.000000000  0.000000000  0.000000000

 
 Subroutine IBZKPT returns following result:
 ===========================================
 
 Found      1 irreducible k-points:
 
 Following reciprocal coordinates:
            Coordinates               Weight
  0.000000  0.000000  0.000000      1.000000
 
 Following cartesian coordinates:
            Coordinates               Weight
  0.000000  0.000000  0.000000      1.000000
 


--------------------------------------------------------------------------------------------------------




 Dimension of arrays:
   k-points           NKPTS =      1   k-points in BZ     NKDIM =      1   number of bands    NBANDS=     28
   number of dos      NEDOS =    301   number of ions     NIONS =     13
   non local maximal  LDIM  =      4   non local SUM 2l+1 LMDIM =      8
   total plane-waves  NPLWV = ******
   max r-space proj   IRMAX =      1   max aug-charges    IRDMAX=   9478
   dimension x,y,z NGX =   270 NGY =  270 NGZ =  240
   dimension x,y,z NGXF=   540 NGYF=  540 NGZF=  480
   support grid    NGXF=   540 NGYF=  540 NGZF=  480
   ions per type =               4   5   3   1
   NGX,Y,Z   is equivalent  to a cutoff of  17.95, 17.95, 18.14 a.u.
   NGXF,Y,Z  is equivalent  to a cutoff of  35.91, 35.91, 36.27 a.u.

 SYSTEM =  unknown system                          
 POSCAR =   C  H  N  O                             

 Startparameter for this run:
   NWRITE =      2    write-flag & timer
   PREC   = accura    normal or accurate (medium, high low for compatibility)
   ISTART =      0    job   : 0-new  1-cont  2-samecut
   ICHARG =      2    charge: 1-file 2-atom 10-const
   ISPIN  =      1    spin polarized calculation?
   LNONCOLLINEAR =      F non collinear calculations
   LSORBIT =      F    spin-orbit coupling
   INIWAV =      1    electr: 0-lowe 1-rand  2-diag
   LASPH  =      T    aspherical Exc in radial PAW
 Electronic Relaxation 1
   ENCUT  = 1000.0 eV  73.50 Ry    8.57 a.u.  64.46 64.46 56.73*2*pi/ulx,y,z
   ENINI  = 1000.0     initial cutoff
   ENAUG  = 1000.0 eV  augmentation charge cutoff
   NELM   =     60;   NELMIN=  2; NELMDL= -5     # of ELM steps 
   EDIFF  = 0.1E-06   stopping-criterion for ELM
   LREAL  =      F    real-space projection
   NLSPLINE    = F    spline interpolate recip. space projectors
   LCOMPAT=      F    compatible to vasp.4.4
   GGA_COMPAT  = T    GGA compatible to vasp.4.4-vasp.4.6
   LMAXPAW     = -100 max onsite density
   LMAXMIX     =    2 max onsite mixed and CHGCAR
   VOSKOWN=      0    Vosko Wilk Nusair interpolation
   ROPT   =    0.00000   0.00000   0.00000   0.00000
 Ionic relaxation
   EDIFFG = 0.1E-05   stopping-criterion for IOM
   NSW    =      0    number of steps for IOM
   NBLOCK =      1;   KBLOCK =      1    inner block; outer block 
   IBRION =     -1    ionic relax: 0-MD 1-quasi-New 2-CG
   NFREE  =      0    steps in history (QN), initial steepest desc. (CG)
   ISIF   =      0    stress and relaxation
   IWAVPR =     10    prediction:  0-non 1-charg 2-wave 3-comb
   ISYM   =      2    0-nonsym 1-usesym 2-fastsym
   LCORR  =      T    Harris-Foulkes like correction to forces

   POTIM  = 0.5000    time-step for ionic-motion
   TEIN   =    0.0    initial temperature
   TEBEG  =    0.0;   TEEND  =   0.0 temperature during run
   SMASS  =  -3.00    Nose mass-parameter (am)
   estimated Nose-frequenzy (Omega)   =  0.10E-29 period in steps = 0.13E+47 mass=  -0.143E-25a.u.
   SCALEE = 1.0000    scale energy and forces
   NPACO  =    256;   APACO  = 10.0  distance and # of slots for P.C.
   PSTRESS=    0.0 pullay stress

  Mass of Ions in am
   POMASS =  12.01  1.00 14.00 16.00
  Ionic Valenz
   ZVAL   =   4.00  1.00  5.00  6.00
  Atomic Wigner-Seitz radii
   RWIGS  =  -1.00 -1.00 -1.00 -1.00
  virtual crystal weights 
   VCA    =   1.00  1.00  1.00  1.00
   NELECT =      42.0000    total number of electrons
   NUPDOWN=      -1.0000    fix difference up-down

 DOS related values:
   EMIN   =  10.00;   EMAX   =-10.00  energy-range for DOS
   EFERMI =   0.00;   METHOD = LEGACY      
   ISMEAR =     0;   SIGMA  =   0.01  broadening in eV -4-tet -1-fermi 0-gaus

 Electronic relaxation 2 (details)
   IALGO  =     58    algorithm
   LDIAG  =      T    sub-space diagonalisation (order eigenvalues)
   LSUBROT=      F    optimize rotation matrix (better conditioning)
   TURBO    =      0    0=normal 1=particle mesh
   IRESTART =      0    0=no restart 2=restart with 2 vectors
   NREBOOT  =      0    no. of reboots
   NMIN     =      0    reboot dimension
   EREF     =   0.00    reference energy to select bands
   IMIX   =      4    mixing-type and parameters
     AMIX     =   0.40;   BMIX     =  1.00
     AMIX_MAG =   1.60;   BMIX_MAG =  1.00
     AMIN     =   0.10
     WC   =   100.;   INIMIX=   1;  MIXPRE=   1;  MAXMIX= -45

 Intra band minimization:
   WEIMIN = 0.0000     energy-eigenvalue tresh-hold
   EBREAK =  0.89E-09  absolut break condition
   DEPER  =   0.30     relativ break condition  

   TIME   =   0.40     timestep for ELM

  volume/ion in A,a.u.               =    1057.69      7137.66
  Fermi-wavevector in a.u.,A,eV,Ry     =   0.237533  0.448872  0.767666  0.056422
  Thomas-Fermi vector in A             =   1.039240

 Write flags
   LWAVE        =      F    write WAVECAR
   LDOWNSAMPLE  =      F    k-point downsampling of WAVECAR
   LCHARG       =      F    write CHGCAR
   LVTOT        =      F    write LOCPOT, total local potential
   LVHAR        =      F    write LOCPOT, Hartree potential only
   LELF         =      F    write electronic localiz. function (ELF)
   LORBIT       =      0    0 simple, 1 ext, 2 COOP (PROOUT), +10 PAW based schemes


 Dipole corrections
   LMONO  =      F    monopole corrections only (constant potential shift)
   LDIPOL =      F    correct potential (dipole corrections)
   IDIPOL =      0    1-x, 2-y, 3-z, 4-all directions 
   EPSILON=  1.0000000 bulk dielectric constant

 Exchange correlation treatment:
   GGA     =    RE    GGA type
   LEXCH   =    40    internal setting for exchange type
   LIBXC   =     F    Libxc                    
   VOSKOWN =     0    Vosko Wilk Nusair interpolation
   LHFCALC =     F    Hartree Fock is set to
   LHFONE  =     F    Hartree Fock one center treatment
   AEXX    =    0.0000 exact exchange contribution

 vdW DFT:
   LUSE_VDW   =     T    switch on vdW DFT
   IVDW_NL    =     1    kernel type
   LSPIN_VDW  =     F    use spin-polarized vdW DFT
   Zab_VDW    =-.8491    correlation parameter
   PARAM1     =0.1234
   PARAM2     =1.0000
   PARAM3     =0.0000
   -- rVV10 --
   BPARAM     = 6.3000
   CPARAM     = 0.0093

 Linear response parameters
   LEPSILON=     F    determine dielectric tensor
   LRPA    =     F    only Hartree local field effects (RPA)
   LNABLA  =     F    use nabla operator in PAW spheres
   LVEL    =     F    velocity operator in full k-point grid
   CSHIFT  =0.1000    complex shift for real part using Kramers Kronig
   OMEGAMAX=  -1.0    maximum frequency
   DEG_THRESHOLD= 0.2000000E-02 threshold for treating states as degnerate
   RTIME   =   -0.100 relaxation time in fs
  (WPLASMAI=    0.000 imaginary part of plasma frequency in eV, 0.658/RTIME)
   DFIELD  = 0.0000000 0.0000000 0.0000000 field for delta impulse in time

  Optional k-point grid parameters
   LKPOINTS_OPT  =     F    use optional k-point grid
   KPOINTS_OPT_MODE=     1    mode for optional k-point grid

 Orbital magnetization related:
   ORBITALMAG=     F  switch on orbital magnetization
   LCHIMAG   =     F  perturbation theory with respect to B field
   DQ        =  0.001000  dq finite difference perturbation B field
   LLRAUG    =     F  two centre corrections for induced B field
   LBONE     =     F  B-component reconstruction in AE one-centre
   LVGVCALC  =     T  calculate vGv susceptibility
   LVGVAPPL  =     F  apply vGv susceptibility instead of pGv for G=0

 Random number generation:
   RANDOM_GENERATOR = DEFAULT
   PCG_SEED         = not used


--------------------------------------------------------------------------------------------------------


 Static calculation
 charge density and potential will be updated during run
 non-spin polarized calculation
 Conjugate gradient for all bands (Freysoldt, et al. PRB 79, 241103 (2009))
 preconditioned conjugated gradient                                        
 perform sub-space diagonalisation
    before iterative eigenvector-optimisation
 modified Broyden-mixing scheme, WC =      100.0
 initial mixing is a Kerker type mixing with AMIX =  0.4000 and BMIX =      1.0000
 Hartree-type preconditioning will be used
 using additional bands            7
 reciprocal scheme for non local part
 use partial core corrections
 no Harris-corrections to forces 
 use gradient corrections 
 use of overlap-Matrix (Vanderbilt PP)
 Gauss-broadening in eV      SIGMA  =   0.01


--------------------------------------------------------------------------------------------------------


  energy-cutoff  :     1000.00
  volume of cell :    13750.00
      direct lattice vectors                 reciprocal lattice vectors
    25.000000000  0.000000000  0.000000000     0.040000000  0.000000000  0.000000000
     0.000000000 25.000000000  0.000000000     0.000000000  0.040000000  0.000000000
     0.000000000  0.000000000 22.000000000     0.000000000  0.000000000  0.045454545

  length of vectors
    25.000000000 25.000000000 22.000000000     0.040000000  0.040000000  0.045454545



 k-points in units of 2pi/SCALE and weight: auto                                    
   0.00000000  0.00000000  0.00000000       1.000

 k-points in reciprocal lattice and weights: auto                                    
   0.00000000  0.00000000  0.00000000       1.000

 position of ions in fractional coordinates (direct lattice) 
   0.44991440  0.51159420  0.52912659
   0.52719800  0.47277780  0.48875841
   0.54858480  0.52292180  0.46833068
   0.51829200  0.56699580  0.47973386
   0.44753960  0.59412740  0.51793523
   0.54112880  0.39285180  0.49674886
   0.59326480  0.42812620  0.46305068
   0.58657800  0.52589020  0.44478114
   0.53020360  0.60714820  0.46646841
   0.47085320  0.56188700  0.50883341
   0.48092200  0.46761260  0.51737977
   0.55502560  0.42696580  0.47767705
   0.40673520  0.51131340  0.55521886

 position of ions in cartesian coordinates  (Angst):
  11.24786000 12.78985500 11.64078500
  13.17995000 11.81944500 10.75268500
  13.71462000 13.07304500 10.30327500
  12.95730000 14.17489500 10.55414500
  11.18849000 14.85318500 11.39457500
  13.52822000  9.82129500 10.92847500
  14.83162000 10.70315500 10.18711500
  14.66445000 13.14725500  9.78518500
  13.25509000 15.17870500 10.26230500
  11.77133000 14.04717500 11.19433500
  12.02305000 11.69031500 11.38235500
  13.87564000 10.67414500 10.50889500
  10.16838000 12.78283500 12.21481500



--------------------------------------------------------------------------------------------------------


 use parallel FFT for orbitals z direction half grid
 k-point   1 :   0.0000 0.0000 0.0000  plane waves:  493619

 maximum and minimum number of plane-waves per node :      7730     7699

 maximum number of plane-waves:    493619
 maximum index in each direction: 
   IXMAX=   64   IYMAX=   64   IZMAX=   56
   IXMIN=  -64   IYMIN=  -64   IZMIN=    0


 parallel 3D FFT for wavefunctions:
    minimum data exchange during FFTs selected (reduces bandwidth)
 parallel 3D FFT for charge:
    minimum data exchange during FFTs selected (reduces bandwidth)


 total amount of memory used by VASP MPI-rank0   136550. kBytes
=======================================================================

   base      :      30000. kBytes
   nonl-proj :       3574. kBytes
   fftplans  :      31236. kBytes
   grid      :      69150. kBytes
   one-center:          1. kBytes
   wavefun   :       2589. kBytes

     INWAV:  cpu time      0.0002: real time      0.0003
 Broyden mixing: mesh for mixing (old mesh)
   NGX =129   NGY =129   NGZ =113
  (NGX  =540   NGY  =540   NGZ  =480)
  gives a total of ****** points

 initial charge density was supplied:
 charge density of overlapping atoms calculated
 number of electron      42.0000000 magnetization 
 keeping initial charge density in first step


--------------------------------------------------------------------------------------------------------


 Maximum index for augmentation-charges          506 (set IRDMAX)


--------------------------------------------------------------------------------------------------------


 First call to EWALD:  gamma=   0.074
 Maximum number of real-space cells 3x 3x 3
 Maximum number of reciprocal cells 3x 3x 3

    FEWALD:  cpu time      0.0034: real time      0.0034


--------------------------------------- Ionic step        1  -------------------------------------------




--------------------------------------- Iteration      1(   1)  ---------------------------------------


vdW kernel read from vdw_kernel.bindat
  0.0000  0.2424  0.5071  0.7962  1.1119  1.4567  1.8333  2.2446  2.6937  3.1842
  3.7199  4.3049  4.9438  5.6415  6.4036  7.2358  8.1446  9.1372 10.2212 11.4050
 12.6979 14.1099 15.6519 17.3360 19.1751 21.1837 23.3773 25.7729 28.3892 31.2465
 34.3669 37.7748 41.4965 45.5611 50.0000

    POTLOK:  cpu time     28.6594: real time     28.6695
    SETDIJ:  cpu time      0.0723: real time      0.0726
    TRIAL :  cpu time      0.9875: real time      0.9887
    CORREC:  cpu time      0.0016: real time      0.0016
    --------------------------------------------
      LOOP:  cpu time     29.7331: real time     29.7448

 eigenvalue-minimisations  :    72
 total energy-change (2. order) : 0.4648215E+03  (-0.1028895E+04)
 number of electron      42.0000000 magnetization 
 augmentation part       42.0000000 magnetization 

 Free energy of the ion-electron system (eV)
  ---------------------------------------------------
  alpha Z        PSCENC =         0.38812818
  Ewald energy   TEWEN  =      3532.69581032
  -Hartree energ DENC   =     -4891.80682519
  -exchange      EXHF   =         0.00000000
  -V(xc)+E(xc)   XCENC  =       111.10067860
  PAW double counting   =      1437.63274424    -1410.50840132
  entropy T*S    EENTRO =        -0.00000000
  eigenvalues    EBANDS =      -216.14220379
  atomic energy  EATOM  =      1901.46156796
  ---------------------------------------------------
  free energy    TOTEN  =       464.82149900 eV

  energy without entropy =      464.82149900  energy(sigma->0) =      464.82149900


--------------------------------------------------------------------------------------------------------




--------------------------------------- Iteration      1(   2)  ---------------------------------------


    TRIAL :  cpu time      1.3237: real time      1.3243
    CORREC:  cpu time      0.0003: real time      0.0003
    --------------------------------------------
      LOOP:  cpu time      1.3372: real time      1.3522

 eigenvalue-minimisations  :   112
 total energy-change (2. order) :-0.2242921E+03  (-0.2200301E+03)
 number of electron      42.0000000 magnetization 
 augmentation part       42.0000000 magnetization 

 Free energy of the ion-electron system (eV)
  ---------------------------------------------------
  alpha Z        PSCENC =         0.38812818
  Ewald energy   TEWEN  =      3532.69581032
  -Hartree energ DENC   =     -4891.80682519
  -exchange      EXHF   =         0.00000000
  -V(xc)+E(xc)   XCENC  =       111.10067860
  PAW double counting   =      1437.63274424    -1410.50840132
  entropy T*S    EENTRO =        -0.00001529
  eigenvalues    EBANDS =      -440.43432629
  atomic energy  EATOM  =      1901.46156796
  ---------------------------------------------------
  free energy    TOTEN  =       240.52936121 eV

  energy without entropy =      240.52937649  energy(sigma->0) =      240.52936885


--------------------------------------------------------------------------------------------------------




--------------------------------------- Iteration      1(   3)  ---------------------------------------


    TRIAL :  cpu time      1.2458: real time      1.2466
    CORREC:  cpu time      0.0001: real time      0.0001
    --------------------------------------------
      LOOP:  cpu time      1.2593: real time      1.2756

 eigenvalue-minimisations  :   104
 total energy-change (2. order) :-0.2161031E+03  (-0.2105925E+03)
 number of electron      42.0000000 magnetization 
 augmentation part       42.0000000 magnetization 

 Free energy of the ion-electron system (eV)
  ---------------------------------------------------
  alpha Z        PSCENC =         0.38812818
  Ewald energy   TEWEN  =      3532.69581032
  -Hartree energ DENC   =     -4891.80682519
  -exchange      EXHF   =         0.00000000
  -V(xc)+E(xc)   XCENC  =       111.10067860
  PAW double counting   =      1437.63274424    -1410.50840132
  entropy T*S    EENTRO =        -0.00000000
  eigenvalues    EBANDS =      -656.53742233
  atomic energy  EATOM  =      1901.46156796
  ---------------------------------------------------
  free energy    TOTEN  =        24.42628045 eV

  energy without entropy =       24.42628045  energy(sigma->0) =       24.42628045


--------------------------------------------------------------------------------------------------------




--------------------------------------- Iteration      1(   4)  ---------------------------------------


    TRIAL :  cpu time      0.8684: real time      0.8692
    CORREC:  cpu time      0.0001: real time      0.0001
    --------------------------------------------
      LOOP:  cpu time      0.8974: real time      0.8982

 eigenvalue-minimisations  :    64
 total energy-change (2. order) :-0.8690749E+02  (-0.8201522E+02)
 number of electron      42.0000000 magnetization 
 augmentation part       42.0000000 magnetization 

 Free energy of the ion-electron system (eV)
  ---------------------------------------------------
  alpha Z        PSCENC =         0.38812818
  Ewald energy   TEWEN  =      3532.69581032
  -Hartree energ DENC   =     -4891.80682519
  -exchange      EXHF   =         0.00000000
  -V(xc)+E(xc)   XCENC  =       111.10067860
  PAW double counting   =      1437.63274424    -1410.50840132
  entropy T*S    EENTRO =        -0.00000000
  eigenvalues    EBANDS =      -743.44491390
  atomic energy  EATOM  =      1901.46156796
  ---------------------------------------------------
  free energy    TOTEN  =       -62.48121111 eV

  energy without entropy =      -62.48121111  energy(sigma->0) =      -62.48121111


--------------------------------------------------------------------------------------------------------




--------------------------------------- Iteration      1(   5)  ---------------------------------------


    TRIAL :  cpu time      0.9440: real time      0.9447
    CORREC:  cpu time      0.0001: real time      0.0001
    CHARGE:  cpu time      0.2072: real time      0.2081
    --------------------------------------------
      LOOP:  cpu time      1.1647: real time      1.1819

 eigenvalue-minimisations  :    72
 total energy-change (2. order) :-0.1707419E+02  (-0.1703817E+02)
 number of electron      42.0000000 magnetization 
 augmentation part        0.0260861 magnetization 

 Free energy of the ion-electron system (eV)
  ---------------------------------------------------
  alpha Z        PSCENC =         0.38812818
  Ewald energy   TEWEN  =      3532.69581032
  -Hartree energ DENC   =     -4891.80682519
  -exchange      EXHF   =         0.00000000
  -V(xc)+E(xc)   XCENC  =       111.10067860
  PAW double counting   =      1437.63274424    -1410.50840132
  entropy T*S    EENTRO =        -0.00000000
  eigenvalues    EBANDS =      -760.51910037
  atomic energy  EATOM  =      1901.46156796
  ---------------------------------------------------
  free energy    TOTEN  =       -79.55539759 eV

  energy without entropy =      -79.55539759  energy(sigma->0) =      -79.55539759


--------------------------------------------------------------------------------------------------------




--------------------------------------- Iteration      1(   6)  ---------------------------------------


    POTLOK:  cpu time     28.1499: real time     28.1581
    SETDIJ:  cpu time      0.0676: real time      0.0676
    TRIAL :  cpu time      0.5596: real time      0.5617
    CORREC:  cpu time     28.5224: real time     28.5316
    CHARGE:  cpu time      0.1934: real time      0.1934
    --------------------------------------------
      LOOP:  cpu time     57.5077: real time     57.5404

 eigenvalue-minimisations  :     0
 total energy-change (2. order) : 0.1680844E+02  (-0.7241225E+01)
 number of electron      42.0000000 magnetization 
 augmentation part       -0.0085166 magnetization 

 Free energy of the ion-electron system (eV)
  ---------------------------------------------------
  alpha Z        PSCENC =         0.38812818
  Ewald energy   TEWEN  =      3532.69581032
  -Hartree energ DENC   =     -5232.48736329
  -exchange      EXHF   =         0.00000000
  -V(xc)+E(xc)   XCENC  =       125.47708781
  PAW double counting   =     14682.76752670   -14657.84340728
  entropy T*S    EENTRO =        -0.00000000
  eigenvalues    EBANDS =      -415.20630494
  atomic energy  EATOM  =      1901.46156796
  ---------------------------------------------------
  free energy    TOTEN  =       -62.74695454 eV

  energy without entropy =      -62.74695454  energy(sigma->0) =      -62.74695454


--------------------------------------------------------------------------------------------------------




--------------------------------------- Iteration      1(   7)  ---------------------------------------


    POTLOK:  cpu time     28.1592: real time     28.1687
    SETDIJ:  cpu time      0.0675: real time      0.0675
    TRIAL :  cpu time      0.5503: real time      0.5504
    CORREC:  cpu time     28.5032: real time     28.5122
    CHARGE:  cpu time      0.1952: real time      0.1953
    --------------------------------------------
      LOOP:  cpu time     57.5058: real time     57.5245

 eigenvalue-minimisations  :     0
 total energy-change (2. order) :-0.7332152E+01  (-0.1092057E+01)
 number of electron      42.0000000 magnetization 
 augmentation part       -0.0342424 magnetization 

 Free energy of the ion-electron system (eV)
  ---------------------------------------------------
  alpha Z        PSCENC =         0.38812818
  Ewald energy   TEWEN  =      3532.69581032
  -Hartree energ DENC   =     -5068.44171933
  -exchange      EXHF   =         0.00000000
  -V(xc)+E(xc)   XCENC  =       118.84712877
  PAW double counting   =     18323.29119935   -18297.41939559
  entropy T*S    EENTRO =        -0.00000000
  eigenvalues    EBANDS =      -580.90182645
  atomic energy  EATOM  =      1901.46156796
  ---------------------------------------------------
  free energy    TOTEN  =       -70.07910680 eV

  energy without entropy =      -70.07910680  energy(sigma->0) =      -70.07910680


--------------------------------------------------------------------------------------------------------




--------------------------------------- Iteration      1(   8)  ---------------------------------------


    POTLOK:  cpu time     28.1175: real time     28.1267
    SETDIJ:  cpu time      0.0677: real time      0.0677
    TRIAL :  cpu time      0.5494: real time      0.5498
    CORREC:  cpu time     28.5993: real time     28.6087
    CHARGE:  cpu time      0.1954: real time      0.1954
    --------------------------------------------
      LOOP:  cpu time     57.5524: real time     57.5877

 eigenvalue-minimisations  :     0
 total energy-change (2. order) :-0.1095553E+01  (-0.4216798E+00)
 number of electron      42.0000000 magnetization 
 augmentation part       -0.0353023 magnetization 

 Free energy of the ion-electron system (eV)
  ---------------------------------------------------
  alpha Z        PSCENC =         0.38812818
  Ewald energy   TEWEN  =      3532.69581032
  -Hartree energ DENC   =     -5073.36848283
  -exchange      EXHF   =         0.00000000
  -V(xc)+E(xc)   XCENC  =       118.98714488
  PAW double counting   =     19129.73420099   -19103.74699341
  entropy T*S    EENTRO =        -0.00000000
  eigenvalues    EBANDS =      -577.32603599
  atomic energy  EATOM  =      1901.46156796
  ---------------------------------------------------
  free energy    TOTEN  =       -71.17465990 eV

  energy without entropy =      -71.17465990  energy(sigma->0) =      -71.17465990


--------------------------------------------------------------------------------------------------------




--------------------------------------- Iteration      1(   9)  ---------------------------------------


    POTLOK:  cpu time     28.1284: real time     28.1378
    SETDIJ:  cpu time      0.0679: real time      0.0679
    TRIAL :  cpu time      0.5518: real time      0.5521
    CORREC:  cpu time     28.5767: real time     28.5854
    CHARGE:  cpu time      0.1940: real time      0.1940
    --------------------------------------------
      LOOP:  cpu time     57.5316: real time     57.5675

 eigenvalue-minimisations  :     0
 total energy-change (2. order) :-0.4213121E+00  (-0.2106419E+00)
 number of electron      42.0000000 magnetization 
 augmentation part       -0.0340417 magnetization 

 Free energy of the ion-electron system (eV)
  ---------------------------------------------------
  alpha Z        PSCENC =         0.38812818
  Ewald energy   TEWEN  =      3532.69581032
  -Hartree energ DENC   =     -5079.58021086
  -exchange      EXHF   =         0.00000000
  -V(xc)+E(xc)   XCENC  =       119.10895958
  PAW double counting   =     19573.39601838   -19547.39021266
  entropy T*S    EENTRO =        -0.00000000
  eigenvalues    EBANDS =      -571.67603285
  atomic energy  EATOM  =      1901.46156796
  ---------------------------------------------------
  free energy    TOTEN  =       -71.59597196 eV

  energy without entropy =      -71.59597196  energy(sigma->0) =      -71.59597196


--------------------------------------------------------------------------------------------------------




--------------------------------------- Iteration      1(  10)  ---------------------------------------


    POTLOK:  cpu time     28.2174: real time     28.2255
    SETDIJ:  cpu time      0.0676: real time      0.0676
    TRIAL :  cpu time      0.5502: real time      0.5505
    CORREC:  cpu time     28.4849: real time     28.4926
    CHARGE:  cpu time      0.1957: real time      0.1960
    --------------------------------------------
      LOOP:  cpu time     57.5307: real time     57.5626

 eigenvalue-minimisations  :     0
 total energy-change (2. order) :-0.2088482E+00  (-0.8505712E-01)
 number of electron      42.0000000 magnetization 
 augmentation part       -0.0323319 magnetization 

 Free energy of the ion-electron system (eV)
  ---------------------------------------------------
  alpha Z        PSCENC =         0.38812818
  Ewald energy   TEWEN  =      3532.69581032
  -Hartree energ DENC   =     -5074.48282874
  -exchange      EXHF   =         0.00000000
  -V(xc)+E(xc)   XCENC  =       118.97025514
  PAW double counting   =     19434.28370088   -19408.27354255
  entropy T*S    EENTRO =        -0.00000000
  eigenvalues    EBANDS =      -576.84791130
  atomic energy  EATOM  =      1901.46156796
  ---------------------------------------------------
  free energy    TOTEN  =       -71.80482012 eV

  energy without entropy =      -71.80482012  energy(sigma->0) =      -71.80482012


--------------------------------------------------------------------------------------------------------




--------------------------------------- Iteration      1(  11)  ---------------------------------------


    POTLOK:  cpu time     28.1412: real time     28.1493
    SETDIJ:  cpu time      0.0676: real time      0.0676
    TRIAL :  cpu time      0.5552: real time      0.5552
    CORREC:  cpu time     28.7291: real time     28.7383
    CHARGE:  cpu time      0.1967: real time      0.1967
    --------------------------------------------
      LOOP:  cpu time     57.7030: real time     57.7369

 eigenvalue-minimisations  :     0
 total energy-change (2. order) :-0.8472747E-01  (-0.3792960E-01)
 number of electron      42.0000000 magnetization 
 augmentation part       -0.0309760 magnetization 

 Free energy of the ion-electron system (eV)
  ---------------------------------------------------
  alpha Z        PSCENC =         0.38812818
  Ewald energy   TEWEN  =      3532.69581032
  -Hartree energ DENC   =     -5071.88311536
  -exchange      EXHF   =         0.00000000
  -V(xc)+E(xc)   XCENC  =       118.92657080
  PAW double counting   =     19154.33849121   -19128.34605638
  entropy T*S    EENTRO =        -0.00000000
  eigenvalues    EBANDS =      -579.47094431
  atomic energy  EATOM  =      1901.46156796
  ---------------------------------------------------
  free energy    TOTEN  =       -71.88954758 eV

  energy without entropy =      -71.88954758  energy(sigma->0) =      -71.88954758


--------------------------------------------------------------------------------------------------------




--------------------------------------- Iteration      1(  12)  ---------------------------------------


    POTLOK:  cpu time     28.1301: real time     28.1389
    SETDIJ:  cpu time      0.0674: real time      0.0676
    TRIAL :  cpu time      0.5506: real time      0.5507
    CORREC:  cpu time     28.5144: real time     28.5246
    CHARGE:  cpu time      0.1952: real time      0.1952
    --------------------------------------------
      LOOP:  cpu time     57.4813: real time     57.5175

 eigenvalue-minimisations  :     0
 total energy-change (2. order) :-0.3783358E-01  (-0.2054594E-01)
 number of electron      42.0000000 magnetization 
 augmentation part       -0.0308151 magnetization 

 Free energy of the ion-electron system (eV)
  ---------------------------------------------------
  alpha Z        PSCENC =         0.38812818
  Ewald energy   TEWEN  =      3532.69581032
  -Hartree energ DENC   =     -5072.02382973
  -exchange      EXHF   =         0.00000000
  -V(xc)+E(xc)   XCENC  =       118.90775143
  PAW double counting   =     19032.26813112   -19006.28704163
  entropy T*S    EENTRO =        -0.00000000
  eigenvalues    EBANDS =      -579.33789881
  atomic energy  EATOM  =      1901.46156796
  ---------------------------------------------------
  free energy    TOTEN  =       -71.92738117 eV

  energy without entropy =      -71.92738117  energy(sigma->0) =      -71.92738117


--------------------------------------------------------------------------------------------------------




--------------------------------------- Iteration      1(  13)  ---------------------------------------


    POTLOK:  cpu time     28.1481: real time     28.1583
    SETDIJ:  cpu time      0.0676: real time      0.0676
    TRIAL :  cpu time      0.5505: real time      0.5510
    CORREC:  cpu time     28.4703: real time     28.4795
    CHARGE:  cpu time      0.1950: real time      0.1950
    --------------------------------------------
      LOOP:  cpu time     57.4454: real time     57.4813

 eigenvalue-minimisations  :     0
 total energy-change (2. order) :-0.2052243E-01  (-0.1162790E-01)
 number of electron      42.0000000 magnetization 
 augmentation part       -0.0310489 magnetization 

 Free energy of the ion-electron system (eV)
  ---------------------------------------------------
  alpha Z        PSCENC =         0.38812818
  Ewald energy   TEWEN  =      3532.69581032
  -Hartree energ DENC   =     -5071.76006945
  -exchange      EXHF   =         0.00000000
  -V(xc)+E(xc)   XCENC  =       118.88175878
  PAW double counting   =     19034.69079296   -19008.71149832
  entropy T*S    EENTRO =        -0.00000000
  eigenvalues    EBANDS =      -579.59439403
  atomic energy  EATOM  =      1901.46156796
  ---------------------------------------------------
  free energy    TOTEN  =       -71.94790360 eV

  energy without entropy =      -71.94790360  energy(sigma->0) =      -71.94790360


--------------------------------------------------------------------------------------------------------




--------------------------------------- Iteration      1(  14)  ---------------------------------------


    POTLOK:  cpu time     28.1231: real time     28.1322
    SETDIJ:  cpu time      0.0675: real time      0.0677
    TRIAL :  cpu time      0.5514: real time      0.5515
    CORREC:  cpu time     28.4514: real time     28.4606
    CHARGE:  cpu time      0.1959: real time      0.1959
    --------------------------------------------
      LOOP:  cpu time     57.4042: real time     57.4383

 eigenvalue-minimisations  :     0
 total energy-change (2. order) :-0.1162215E-01  (-0.5989787E-02)
 number of electron      42.0000000 magnetization 
 augmentation part       -0.0310371 magnetization 

 Free energy of the ion-electron system (eV)
  ---------------------------------------------------
  alpha Z        PSCENC =         0.38812818
  Ewald energy   TEWEN  =      3532.69581032
  -Hartree energ DENC   =     -5071.74123395
  -exchange      EXHF   =         0.00000000
  -V(xc)+E(xc)   XCENC  =       118.88299011
  PAW double counting   =     19042.82130624   -19016.84190900
  entropy T*S    EENTRO =        -0.00000000
  eigenvalues    EBANDS =      -579.62618560
  atomic energy  EATOM  =      1901.46156796
  ---------------------------------------------------
  free energy    TOTEN  =       -71.95952575 eV

  energy without entropy =      -71.95952575  energy(sigma->0) =      -71.95952575


--------------------------------------------------------------------------------------------------------




--------------------------------------- Iteration      1(  15)  ---------------------------------------


    POTLOK:  cpu time     28.0832: real time     28.0923
    SETDIJ:  cpu time      0.0676: real time      0.0676
    TRIAL :  cpu time      0.5512: real time      0.5513
    CORREC:  cpu time     28.4719: real time     28.4805
    CHARGE:  cpu time      0.1935: real time      0.1935
    --------------------------------------------
      LOOP:  cpu time     57.3976: real time     57.4154

 eigenvalue-minimisations  :     0
 total energy-change (2. order) :-0.5991844E-02  (-0.2529503E-02)
 number of electron      42.0000000 magnetization 
 augmentation part       -0.0308958 magnetization 

 Free energy of the ion-electron system (eV)
  ---------------------------------------------------
  alpha Z        PSCENC =         0.38812818
  Ewald energy   TEWEN  =      3532.69581032
  -Hartree energ DENC   =     -5072.69701279
  -exchange      EXHF   =         0.00000000
  -V(xc)+E(xc)   XCENC  =       118.90995804
  PAW double counting   =     19018.49234230   -18992.51404656
  entropy T*S    EENTRO =        -0.00000000
  eigenvalues    EBANDS =      -578.70226504
  atomic energy  EATOM  =      1901.46156796
  ---------------------------------------------------
  free energy    TOTEN  =       -71.96551759 eV

  energy without entropy =      -71.96551759  energy(sigma->0) =      -71.96551759


--------------------------------------------------------------------------------------------------------




--------------------------------------- Iteration      1(  16)  ---------------------------------------


    POTLOK:  cpu time     28.0294: real time     28.0383
    SETDIJ:  cpu time      0.0674: real time      0.0674
    TRIAL :  cpu time      0.5513: real time      0.5517
    CORREC:  cpu time     28.4348: real time     28.4434
    CHARGE:  cpu time      0.1952: real time      0.1952
    --------------------------------------------
      LOOP:  cpu time     57.2911: real time     57.3261

 eigenvalue-minimisations  :     0
 total energy-change (2. order) :-0.2531201E-02  (-0.8276602E-03)
 number of electron      42.0000000 magnetization 
 augmentation part       -0.0308364 magnetization 

 Free energy of the ion-electron system (eV)
  ---------------------------------------------------
  alpha Z        PSCENC =         0.38812818
  Ewald energy   TEWEN  =      3532.69581032
  -Hartree energ DENC   =     -5072.98048957
  -exchange      EXHF   =         0.00000000
  -V(xc)+E(xc)   XCENC  =       118.91619257
  PAW double counting   =     18997.63370331   -18971.65496116
  entropy T*S    EENTRO =        -0.00000000
  eigenvalues    EBANDS =      -578.42800039
  atomic energy  EATOM  =      1901.46156796
  ---------------------------------------------------
  free energy    TOTEN  =       -71.96804879 eV

  energy without entropy =      -71.96804879  energy(sigma->0) =      -71.96804879


--------------------------------------------------------------------------------------------------------




--------------------------------------- Iteration      1(  17)  ---------------------------------------


    POTLOK:  cpu time     28.0904: real time     28.0996
    SETDIJ:  cpu time      0.0675: real time      0.0675
    TRIAL :  cpu time      0.5520: real time      0.5521
    CORREC:  cpu time     28.3958: real time     28.4045
    CHARGE:  cpu time      0.1922: real time      0.1922
    --------------------------------------------
      LOOP:  cpu time     57.3276: real time     57.3458

 eigenvalue-minimisations  :     0
 total energy-change (2. order) :-0.8286292E-03  (-0.2952989E-03)
 number of electron      42.0000000 magnetization 
 augmentation part       -0.0307837 magnetization 

 Free energy of the ion-electron system (eV)
  ---------------------------------------------------
  alpha Z        PSCENC =         0.38812818
  Ewald energy   TEWEN  =      3532.69581032
  -Hartree energ DENC   =     -5072.98217525
  -exchange      EXHF   =         0.00000000
  -V(xc)+E(xc)   XCENC  =       118.91763803
  PAW double counting   =     18991.77188945   -18965.79231995
  entropy T*S    EENTRO =        -0.00000000
  eigenvalues    EBANDS =      -578.42941615
  atomic energy  EATOM  =      1901.46156796
  ---------------------------------------------------
  free energy    TOTEN  =       -71.96887742 eV

  energy without entropy =      -71.96887742  energy(sigma->0) =      -71.96887742


--------------------------------------------------------------------------------------------------------




--------------------------------------- Iteration      1(  18)  ---------------------------------------


    POTLOK:  cpu time     28.0669: real time     28.0764
    SETDIJ:  cpu time      0.0677: real time      0.0677
    TRIAL :  cpu time      0.5500: real time      0.5505
    CORREC:  cpu time     28.4038: real time     28.4131
    CHARGE:  cpu time      0.1943: real time      0.1943
    --------------------------------------------
      LOOP:  cpu time     57.3128: real time     57.3323

 eigenvalue-minimisations  :     0
 total energy-change (2. order) :-0.2954310E-03  (-0.1295464E-03)
 number of electron      42.0000000 magnetization 
 augmentation part       -0.0308570 magnetization 

 Free energy of the ion-electron system (eV)
  ---------------------------------------------------
  alpha Z        PSCENC =         0.38812818
  Ewald energy   TEWEN  =      3532.69581032
  -Hartree energ DENC   =     -5073.15794987
  -exchange      EXHF   =         0.00000000
  -V(xc)+E(xc)   XCENC  =       118.92556431
  PAW double counting   =     18997.42080085   -18971.44165624
  entropy T*S    EENTRO =        -0.00000000
  eigenvalues    EBANDS =      -578.26143835
  atomic energy  EATOM  =      1901.46156796
  ---------------------------------------------------
  free energy    TOTEN  =       -71.96917285 eV

  energy without entropy =      -71.96917285  energy(sigma->0) =      -71.96917285


--------------------------------------------------------------------------------------------------------




--------------------------------------- Iteration      1(  19)  ---------------------------------------


    POTLOK:  cpu time     27.9377: real time     27.9468
    SETDIJ:  cpu time      0.0676: real time      0.0676
    TRIAL :  cpu time      0.5505: real time      0.5513
    CORREC:  cpu time     28.4540: real time     28.4630
    CHARGE:  cpu time      0.1939: real time      0.1939
    --------------------------------------------
      LOOP:  cpu time     57.2164: real time     57.2520

 eigenvalue-minimisations  :     0
 total energy-change (2. order) :-0.1294508E-03  (-0.6125585E-04)
 number of electron      42.0000000 magnetization 
 augmentation part       -0.0308853 magnetization 

 Free energy of the ion-electron system (eV)
  ---------------------------------------------------
  alpha Z        PSCENC =         0.38812818
  Ewald energy   TEWEN  =      3532.69581032
  -Hartree energ DENC   =     -5073.02711541
  -exchange      EXHF   =         0.00000000
  -V(xc)+E(xc)   XCENC  =       118.92201417
  PAW double counting   =     19012.47136531   -18986.49149303
  entropy T*S    EENTRO =        -0.00000000
  eigenvalues    EBANDS =      -578.38957979
  atomic energy  EATOM  =      1901.46156796
  ---------------------------------------------------
  free energy    TOTEN  =       -71.96930231 eV

  energy without entropy =      -71.96930231  energy(sigma->0) =      -71.96930231


--------------------------------------------------------------------------------------------------------




--------------------------------------- Iteration      1(  20)  ---------------------------------------


    POTLOK:  cpu time     28.0316: real time     28.0404
    SETDIJ:  cpu time      0.0673: real time      0.0676
    TRIAL :  cpu time      0.5503: real time      0.5504
    CORREC:  cpu time     28.3779: real time     28.3876
    CHARGE:  cpu time      0.1931: real time      0.1935
    --------------------------------------------
      LOOP:  cpu time     57.2334: real time     57.2695

 eigenvalue-minimisations  :     0
 total energy-change (2. order) :-0.6085361E-04  (-0.2881209E-04)
 number of electron      42.0000000 magnetization 
 augmentation part       -0.0309252 magnetization 

 Free energy of the ion-electron system (eV)
  ---------------------------------------------------
  alpha Z        PSCENC =         0.38812818
  Ewald energy   TEWEN  =      3532.69581032
  -Hartree energ DENC   =     -5073.04171398
  -exchange      EXHF   =         0.00000000
  -V(xc)+E(xc)   XCENC  =       118.92341195
  PAW double counting   =     19024.82591311   -18998.84615785
  entropy T*S    EENTRO =        -0.00000000
  eigenvalues    EBANDS =      -578.37632284
  atomic energy  EATOM  =      1901.46156796
  ---------------------------------------------------
  free energy    TOTEN  =       -71.96936316 eV

  energy without entropy =      -71.96936316  energy(sigma->0) =      -71.96936316


--------------------------------------------------------------------------------------------------------




--------------------------------------- Iteration      1(  21)  ---------------------------------------


    POTLOK:  cpu time     27.9709: real time     27.9797
    SETDIJ:  cpu time      0.0677: real time      0.0677
    TRIAL :  cpu time      0.5519: real time      0.5519
    CORREC:  cpu time     28.3529: real time     28.3619
    CHARGE:  cpu time      0.1961: real time      0.1961
    --------------------------------------------
      LOOP:  cpu time     57.1519: real time     57.1875

 eigenvalue-minimisations  :     0
 total energy-change (2. order) :-0.2855831E-04  (-0.1284551E-04)
 number of electron      42.0000000 magnetization 
 augmentation part       -0.0309312 magnetization 

 Free energy of the ion-electron system (eV)
  ---------------------------------------------------
  alpha Z        PSCENC =         0.38812818
  Ewald energy   TEWEN  =      3532.69581032
  -Hartree energ DENC   =     -5073.02474532
  -exchange      EXHF   =         0.00000000
  -V(xc)+E(xc)   XCENC  =       118.92270856
  PAW double counting   =     19031.01565590   -19005.03583266
  entropy T*S    EENTRO =        -0.00000000
  eigenvalues    EBANDS =      -578.39268466
  atomic energy  EATOM  =      1901.46156796
  ---------------------------------------------------
  free energy    TOTEN  =       -71.96939172 eV

  energy without entropy =      -71.96939172  energy(sigma->0) =      -71.96939172


--------------------------------------------------------------------------------------------------------




--------------------------------------- Iteration      1(  22)  ---------------------------------------


    POTLOK:  cpu time     27.9878: real time     27.9968
    SETDIJ:  cpu time      0.0676: real time      0.0676
    TRIAL :  cpu time      0.5507: real time      0.5507
    CORREC:  cpu time     28.3933: real time     28.4034
    CHARGE:  cpu time      0.1947: real time      0.1948
    --------------------------------------------
      LOOP:  cpu time     57.2083: real time     57.2436

 eigenvalue-minimisations  :     0
 total energy-change (2. order) :-0.1280631E-04  (-0.5407292E-05)
 number of electron      42.0000000 magnetization 
 augmentation part       -0.0309310 magnetization 

 Free energy of the ion-electron system (eV)
  ---------------------------------------------------
  alpha Z        PSCENC =         0.38812818
  Ewald energy   TEWEN  =      3532.69581032
  -Hartree energ DENC   =     -5072.99849585
  -exchange      EXHF   =         0.00000000
  -V(xc)+E(xc)   XCENC  =       118.92194765
  PAW double counting   =     19031.68826654   -19005.70852747
  entropy T*S    EENTRO =        -0.00000000
  eigenvalues    EBANDS =      -578.41810185
  atomic energy  EATOM  =      1901.46156796
  ---------------------------------------------------
  free energy    TOTEN  =       -71.96940452 eV

  energy without entropy =      -71.96940452  energy(sigma->0) =      -71.96940452


--------------------------------------------------------------------------------------------------------




--------------------------------------- Iteration      1(  23)  ---------------------------------------


    POTLOK:  cpu time     27.9479: real time     27.9573
    SETDIJ:  cpu time      0.0675: real time      0.0675
    TRIAL :  cpu time      0.5521: real time      0.5525
    CORREC:  cpu time     28.4062: real time     28.4166
    CHARGE:  cpu time      0.1942: real time      0.1943
    --------------------------------------------
      LOOP:  cpu time     57.1974: real time     57.2178

 eigenvalue-minimisations  :     0
 total energy-change (2. order) :-0.5412850E-05  (-0.2300731E-05)
 number of electron      42.0000000 magnetization 
 augmentation part       -0.0309177 magnetization 

 Free energy of the ion-electron system (eV)
  ---------------------------------------------------
  alpha Z        PSCENC =         0.38812818
  Ewald energy   TEWEN  =      3532.69581032
  -Hartree energ DENC   =     -5073.00269108
  -exchange      EXHF   =         0.00000000
  -V(xc)+E(xc)   XCENC  =       118.92180336
  PAW double counting   =     19029.72534910   -19003.74564059
  entropy T*S    EENTRO =        -0.00000000
  eigenvalues    EBANDS =      -578.41373719
  atomic energy  EATOM  =      1901.46156796
  ---------------------------------------------------
  free energy    TOTEN  =       -71.96940994 eV

  energy without entropy =      -71.96940994  energy(sigma->0) =      -71.96940994


--------------------------------------------------------------------------------------------------------




--------------------------------------- Iteration      1(  24)  ---------------------------------------


    POTLOK:  cpu time     28.0108: real time     28.0207
    SETDIJ:  cpu time      0.0715: real time      0.0715
    TRIAL :  cpu time      0.5513: real time      0.5518
    CORREC:  cpu time     28.3315: real time     28.3415
    CHARGE:  cpu time      0.1949: real time      0.1952
    --------------------------------------------
      LOOP:  cpu time     57.1724: real time     57.2105

 eigenvalue-minimisations  :     0
 total energy-change (2. order) :-0.2313704E-05  (-0.9651845E-06)
 number of electron      42.0000000 magnetization 
 augmentation part       -0.0309169 magnetization 

 Free energy of the ion-electron system (eV)
  ---------------------------------------------------
  alpha Z        PSCENC =         0.38812818
  Ewald energy   TEWEN  =      3532.69581032
  -Hartree energ DENC   =     -5073.01475635
  -exchange      EXHF   =         0.00000000
  -V(xc)+E(xc)   XCENC  =       118.92216520
  PAW double counting   =     19027.68752022   -19001.70791170
  entropy T*S    EENTRO =        -0.00000000
  eigenvalues    EBANDS =      -578.40193608
  atomic energy  EATOM  =      1901.46156796
  ---------------------------------------------------
  free energy    TOTEN  =       -71.96941225 eV

  energy without entropy =      -71.96941225  energy(sigma->0) =      -71.96941225


--------------------------------------------------------------------------------------------------------




--------------------------------------- Iteration      1(  25)  ---------------------------------------


    POTLOK:  cpu time     28.0592: real time     28.0691
    SETDIJ:  cpu time      0.0678: real time      0.0678
    TRIAL :  cpu time      0.5516: real time      0.5516
    CORREC:  cpu time     28.4392: real time     28.4488
    CHARGE:  cpu time      0.1940: real time      0.1940
    --------------------------------------------
      LOOP:  cpu time     57.3233: real time     57.3618

 eigenvalue-minimisations  :     0
 total energy-change (2. order) :-0.9817522E-06  (-0.4384562E-06)
 number of electron      42.0000000 magnetization 
 augmentation part       -0.0309103 magnetization 

 Free energy of the ion-electron system (eV)
  ---------------------------------------------------
  alpha Z        PSCENC =         0.38812818
  Ewald energy   TEWEN  =      3532.69581032
  -Hartree energ DENC   =     -5073.00602491
  -exchange      EXHF   =         0.00000000
  -V(xc)+E(xc)   XCENC  =       118.92179769
  PAW double counting   =     19026.63922940   -19000.65956954
  entropy T*S    EENTRO =        -0.00000000
  eigenvalues    EBANDS =      -578.41035232
  atomic energy  EATOM  =      1901.46156796
  ---------------------------------------------------
  free energy    TOTEN  =       -71.96941323 eV

  energy without entropy =      -71.96941323  energy(sigma->0) =      -71.96941323


--------------------------------------------------------------------------------------------------------




--------------------------------------- Iteration      1(  26)  ---------------------------------------


    POTLOK:  cpu time     28.0484: real time     28.0580
    SETDIJ:  cpu time      0.0681: real time      0.0681
    TRIAL :  cpu time      0.5513: real time      0.5519
    CORREC:  cpu time     28.4560: real time     28.4649
    CHARGE:  cpu time      0.1951: real time      0.1951
    --------------------------------------------
      LOOP:  cpu time     57.3492: real time     57.3692

 eigenvalue-minimisations  :     0
 total energy-change (2. order) :-0.4447211E-06  (-0.1748682E-06)
 number of electron      42.0000000 magnetization 
 augmentation part       -0.0309100 magnetization 

 Free energy of the ion-electron system (eV)
  ---------------------------------------------------
  alpha Z        PSCENC =         0.38812818
  Ewald energy   TEWEN  =      3532.69581032
  -Hartree energ DENC   =     -5073.01589908
  -exchange      EXHF   =         0.00000000
  -V(xc)+E(xc)   XCENC  =       118.92214226
  PAW double counting   =     19026.11736947   -19000.13774411
  entropy T*S    EENTRO =        -0.00000000
  eigenvalues    EBANDS =      -578.40078866
  atomic energy  EATOM  =      1901.46156796
  ---------------------------------------------------
  free energy    TOTEN  =       -71.96941368 eV

  energy without entropy =      -71.96941368  energy(sigma->0) =      -71.96941368


--------------------------------------------------------------------------------------------------------




--------------------------------------- Iteration      1(  27)  ---------------------------------------


    POTLOK:  cpu time     27.9851: real time     27.9945
    SETDIJ:  cpu time      0.0679: real time      0.0679
    TRIAL :  cpu time      0.5532: real time      0.5537
    CORREC:  cpu time     28.3793: real time     28.3884
    CHARGE:  cpu time      0.1950: real time      0.1950
    --------------------------------------------
      LOOP:  cpu time     57.1930: real time     57.2298

 eigenvalue-minimisations  :     0
 total energy-change (2. order) :-0.1786466E-06  (-0.7649200E-07)
 number of electron      42.0000000 magnetization 
 augmentation part       -0.0309093 magnetization 

 Free energy of the ion-electron system (eV)
  ---------------------------------------------------
  alpha Z        PSCENC =         0.38812818
  Ewald energy   TEWEN  =      3532.69581032
  -Hartree energ DENC   =     -5073.01411621
  -exchange      EXHF   =         0.00000000
  -V(xc)+E(xc)   XCENC  =       118.92207284
  PAW double counting   =     19025.94983462   -18999.97018581
  entropy T*S    EENTRO =        -0.00000000
  eigenvalues    EBANDS =      -578.40252575
  atomic energy  EATOM  =      1901.46156796
  ---------------------------------------------------
  free energy    TOTEN  =       -71.96941386 eV

  energy without entropy =      -71.96941386  energy(sigma->0) =      -71.96941386


--------------------------------------------------------------------------------------------------------




--------------------------------------- Iteration      1(  28)  ---------------------------------------


    POTLOK:  cpu time     28.0443: real time     28.0538
    SETDIJ:  cpu time      0.0676: real time      0.0676
    TRIAL :  cpu time      0.5516: real time      0.5516
    CORREC:  cpu time     28.3358: real time     28.3450
    EDDIAG:  cpu time      0.2338: real time      0.2343
    CHARGE:  cpu time      0.1938: real time      0.1938
    --------------------------------------------
      LOOP:  cpu time     57.4411: real time     57.4762

 eigenvalue-minimisations  :     0
 total energy-change (2. order) :-0.7764538E-07  (-0.3535603E-07)
 number of electron      42.0000000 magnetization 
 augmentation part       -0.0309086 magnetization 

 Free energy of the ion-electron system (eV)
  ---------------------------------------------------
  alpha Z        PSCENC =         0.38812818
  Ewald energy   TEWEN  =      3532.69581032
  -Hartree energ DENC   =     -5073.01306434
  -exchange      EXHF   =         0.00000000
  -V(xc)+E(xc)   XCENC  =       118.92206216
  PAW double counting   =     19025.85571987   -18999.87606459
  entropy T*S    EENTRO =        -0.00000000
  eigenvalues    EBANDS =      -578.40357348
  atomic energy  EATOM  =      1901.46156796
  ---------------------------------------------------
  free energy    TOTEN  =       -71.96941393 eV

  energy without entropy =      -71.96941393  energy(sigma->0) =      -71.96941393


--------------------------------------------------------------------------------------------------------


  average scaling for gradient   0.8793


 average (electrostatic) potential at core
  the test charge radii are     0.5770  0.4325  0.5902  0.5955
  (the norm of the test charge is              1.0000)
       1 -89.8002       2 -89.4841       3 -87.5521       4 -88.9933       5 -49.2308
       6 -48.9042       7 -49.2094       8 -47.4025       9 -47.9131      10-105.7956
      11-103.6962      12-105.2278      13-118.5588



 E-fermi :  -5.7336     XC(G=0):  -0.1836     alpha+bet : -0.0667

 Fermi energy:        -5.7335784889

 k-point     1 :       0.0000    0.0000    0.0000
  band No.  band energies     occupation 
      1     -26.1044      2.00000
      2     -24.4534      2.00000
      3     -23.8356      2.00000
      4     -21.9488      2.00000
      5     -19.6828      2.00000
      6     -16.7432      2.00000
      7     -16.3371      2.00000
      8     -14.2504      2.00000
      9     -14.1845      2.00000
     10     -13.2567      2.00000
     11     -12.4906      2.00000
     12     -11.2453      2.00000
     13     -11.1999      2.00000
     14     -10.8244      2.00000
     15      -9.8489      2.00000
     16      -9.4813      2.00000
     17      -8.6585      2.00000
     18      -6.5017      2.00000
     19      -6.3986      2.00000
     20      -5.9254      2.00000
     21      -5.8299      2.00000
     22      -2.1620      0.00000
     23      -1.4205      0.00000
     24      -1.0943      0.00000
     25      -0.7407      0.00000
     26      -0.5480      0.00000
     27      -0.1468      0.00000
     28      -0.0982      0.00000


--------------------------------------------------------------------------------------------------------


 soft charge-density along one line, spin component           1
         0         1         2         3         4         5         6         7         8         9
 total charge-density along one line

 pseudopotential strength for first ion, spin component:           1
 12.813  21.567   0.006  -0.003   0.005   0.011  -0.006   0.008
 21.567  36.300   0.010  -0.005   0.008   0.019  -0.010   0.014
  0.006   0.010  -3.225   0.001  -0.002  -5.784   0.001  -0.004
 -0.003  -0.005   0.001  -3.228  -0.005   0.001  -5.789  -0.008
  0.005   0.008  -0.002  -0.005  -3.221  -0.004  -0.008  -5.776
  0.011   0.019  -5.784   0.001  -0.004 -10.352   0.002  -0.007
 -0.006  -0.010   0.001  -5.789  -0.008   0.002 -10.359  -0.014
  0.008   0.014  -0.004  -0.008  -5.776  -0.007  -0.014 -10.338
 total augmentation occupancy for first ion, spin component:           1
  8.114  -3.024  -0.136   0.761  -1.379   0.054  -0.354   0.645
 -3.024   1.236   0.024  -0.358   0.660  -0.017   0.170  -0.313
 -0.136   0.024   6.403  -0.209  -0.522  -2.203   0.098   0.199
  0.761  -0.358  -0.209   4.243  -2.592   0.098  -1.304   1.096
 -1.379   0.660  -0.522  -2.592   7.867   0.200   1.096  -2.831
  0.054  -0.017  -2.203   0.098   0.200   0.775  -0.040  -0.079
 -0.354   0.170   0.098  -1.304   1.096  -0.040   0.428  -0.457
  0.645  -0.313   0.199   1.096  -2.831  -0.079  -0.457   1.063


------------------------ aborting loop because EDIFF is reached ----------------------------------------


    FORLOC:  cpu time      0.0631: real time      0.0631
    FORNL :  cpu time      0.0436: real time      0.0437
    FORCOR:  cpu time     27.9872: real time     27.9981
    OFIELD:  cpu time      0.0067: real time      0.0075

 VOLUME and BASIS-vectors are now :
 -----------------------------------------------------------------------------
  energy-cutoff  :     1000.00
  volume of cell :    13750.00
      direct lattice vectors                 reciprocal lattice vectors
    25.000000000  0.000000000  0.000000000     0.040000000  0.000000000  0.000000000
     0.000000000 25.000000000  0.000000000     0.000000000  0.040000000  0.000000000
     0.000000000  0.000000000 22.000000000     0.000000000  0.000000000  0.045454545

  length of vectors
    25.000000000 25.000000000 22.000000000     0.040000000  0.040000000  0.045454545


 FORCES acting on ions:
    Electron-Ion                     Ewald-Force                    Non-Local-Force
 -----------------------------------------------------------------------------------------------
   0.443E+02 0.535E+00 -.223E+02   -.475E+02 -.460E+01 0.245E+02   0.340E+01 0.418E+01 -.233E+01
   -.896E+02 0.511E+02 0.393E+02   0.881E+02 -.448E+02 -.388E+02   0.161E+01 -.637E+01 -.564E+00
   -.187E+03 -.496E+02 0.105E+03   0.188E+03 0.504E+02 -.105E+03   -.693E+00 -.819E+00 0.541E+00
   -.985E+02 -.206E+03 0.792E+02   0.106E+03 0.205E+03 -.828E+02   -.706E+01 0.144E+01 0.355E+01
   0.544E+02 -.950E+02 -.159E+02   -.589E+02 0.101E+03 0.175E+02   0.453E+01 -.598E+01 -.159E+01
   0.880E+01 0.964E+02 -.266E+02   -.115E+02 -.103E+03 0.297E+02   0.275E+01 0.645E+01 -.315E+01
   -.928E+02 0.237E+02 0.314E+02   0.100E+03 -.236E+02 -.338E+02   -.727E+01 -.149E+00 0.251E+01
   -.769E+02 -.154E+02 0.430E+02   0.821E+02 0.159E+02 -.458E+02   -.519E+01 -.465E+00 0.285E+01
   -.286E+02 -.821E+02 0.260E+02   0.304E+02 0.877E+02 -.277E+02   -.175E+01 -.559E+01 0.167E+01
   0.874E+02 -.235E+03 -.136E+02   -.912E+02 0.233E+03 0.158E+02   0.359E+01 0.286E+01 -.215E+01
   0.917E+02 0.240E+03 -.812E+02   -.105E+03 -.272E+03 0.926E+02   0.132E+02 0.320E+02 -.115E+02
   -.148E+03 0.227E+03 0.657E+02   0.144E+03 -.229E+03 -.724E+02   0.395E+01 0.230E+01 0.670E+01
   0.377E+03 0.130E+02 -.201E+03   -.425E+03 -.154E+02 0.226E+03   0.470E+02 0.249E+01 -.253E+02
 -----------------------------------------------------------------------------------------------
   -.581E+02 -.324E+02 0.288E+02   0.114E-12 0.338E-13 0.000E+00   0.581E+02 0.324E+02 -.288E+02


 POSITION                                       TOTAL-FORCE (eV/Angst)
 -----------------------------------------------------------------------------------
     11.24786     12.78985     11.64079         0.051149     -0.003982     -0.027402
     13.17995     11.81945     10.75268         0.034131      0.063091     -0.007893
     13.71462     13.07304     10.30327         0.270943      0.032121     -0.152781
     12.95730     14.17490     10.55414         0.133504      0.303567     -0.112204
     11.18849     14.85318     11.39458         0.031323     -0.004395     -0.015447
     13.52822      9.82130     10.92847         0.046992      0.005018     -0.018665
     14.83162     10.70316     10.18711        -0.023233     -0.020331      0.019771
     14.66445     13.14725      9.78519        -0.010969      0.004082      0.007905
     13.25509     15.17870     10.26230        -0.003338     -0.008964      0.003437
     11.77133     14.04717     11.19434        -0.190096      0.287534      0.060802
     12.02305     11.69032     11.38236        -0.108792     -0.313433      0.105993
     13.87564     10.67414     10.50890         0.181746     -0.335621     -0.080050
     10.16838     12.78283     12.21481        -0.413361     -0.008687      0.216534
 -----------------------------------------------------------------------------------
    total drift:                                0.000022     -0.000050     -0.000072


--------------------------------------------------------------------------------------------------------



  FREE ENERGIE OF THE ION-ELECTRON SYSTEM (eV)
  ---------------------------------------------------
  free  energy   TOTEN  =       -71.96941393 eV

  energy  without entropy=      -71.96941393  energy(sigma->0) =      -71.96941393



--------------------------------------------------------------------------------------------------------


    POTLOK:  cpu time     28.0574: real time     28.0673


--------------------------------------------------------------------------------------------------------


 stress matrix after NEB project (eV)
      0.00000      0.00000      0.00000
      0.00000      0.00000      0.00000
      0.00000      0.00000      0.00000
  FORCES: max atom, RMS     0.466723    0.255424
  FORCE total and by dimension    0.920945    0.413361
  Stress total and by dimension    0.000000    0.000000
     LOOP+:  cpu time   1410.0721: real time   1410.8759
    4ORBIT:  cpu time      0.0000: real time      0.0000

 total amount of memory used by VASP MPI-rank0   136550. kBytes
=======================================================================

   base      :      30000. kBytes
   nonl-proj :       3574. kBytes
   fftplans  :      31236. kBytes
   grid      :      69150. kBytes
   one-center:          1. kBytes
   wavefun   :       2589. kBytes

  
  
 General timing and accounting informations for this job:
 ========================================================
  
                  Total CPU time used (sec):     1439.565
                            User time (sec):     1421.930
                          System time (sec):       17.634
                         Elapsed time (sec):     1449.039
  
                   Maximum memory used (kb):      850468.
                   Average memory used (kb):          N/A
  
                          Minor page faults:       451087
                          Major page faults:          371
                 Voluntary context switches:         6542
