 vasp.6.4.1 05Apr23 (build Jun  6 2023 14:46:38) gamma-only                      
 executed on        HPECrayEX_GCC date 2024.08.21  11:34:27
 running  256 mpi-ranks, with    1 threads/rank, on    2 nodes
 distrk:  each k-point on  128 cores,    2 groups
 distr:  one band on NCORE=  32 cores,    4 groups


--------------------------------------------------------------------------------------------------------


 INCAR:
   ALGO = Conjugate
   KPAR = 2
   NCORE = 32
   ISMEAR = 0
   SIGMA = 0.01
   PREC = Accurate
   EDIFF = 1E-7
   ENCUT = 1000
   ISIF = 0
   GGA = RE
   IVDW = 11
   LWAVE = .FALSE.
   LCHARG = .FALSE.
   SYMPREC = 1E-7
   LWAVE = .FALSE.
   LCHARG = .FALSE.

 POTCAR:    PAW_PBE C_h 06Feb2004                 
 POTCAR:    PAW_PBE H_h 06Feb2004                 
 POTCAR:    PAW_PBE N_h 06Feb2004                 
 POTCAR:    PAW_PBE O_h 06Feb2004                 
 POTCAR:    PAW_PBE C_h 06Feb2004                 
   VRHFIN =C: s2p2                                                                                  
   LEXCH  = PE                                                                                      
   EATOM  =   147.1560 eV,   10.8157 Ry                                                             
                                                                                                    
   TITEL  = PAW_PBE C_h 06Feb2004                                                                   
   LULTRA =        F    use ultrasoft PP ?                                                          
   IUNSCR =        1    unscreen: 0-lin 1-nonlin 2-no                                               
   RPACOR =    0.800    partial core radius                                                         
   POMASS =   12.011; ZVAL   =    4.000    mass and valenz                                          
   RCORE  =    1.100    outmost cutoff radius                                                       
   RWIGS  =    1.630; RWIGS  =    0.863    wigner-seitz radius (au A)                               
   ENMAX  =  700.000; ENMIN  =  500.000 eV                                                          
   ICORE  =        2    local potential                                                             
   LCOR   =        T    correct aug charges                                                         
   LPAW   =        T    paw PP                                                                      
   EAUG   =  946.768                                                                                
   DEXC   =    0.000                                                                                
   RMAX   =    1.128    core radius for proj-oper                                                   
   RAUG   =    1.300    factor for augmentation sphere                                              
   RDEP   =    1.162    radius for radial grids                                                     
   RDEPT  =    1.088    core radius for aug-charge                                                  
                                                                                                    
   Atomic configuration                                                                             
    4 entries                                                                                       
     n  l   j            E        occ.                                                              
     1  0  0.50      -273.3789   2.0000                                                             
     2  0  0.50       -13.7508   2.0000                                                             
     2  1  0.50        -5.2854   2.0000                                                             
     3  2  1.50        -5.4423   0.0000                                                             
   Description                                                                                      
     l       E           TYP  RCUT    TYP  RCUT                                                     
     0    -13.7508458     23  1.100                                                                 
     0     -8.2022199     23  1.100                                                                 
     1     -5.2854383     23  1.100                                                                 
     1      1.1560700     23  1.100                                                                 
     2     -5.4423304      7  1.100                                                                 
  local pseudopotential read in
  partial core-charges read in
  partial kinetic energy density read in
  atomic valenz-charges read in
  non local Contribution for L=           0  read in
    real space projection operators read in
  non local Contribution for L=           0  read in
    real space projection operators read in
  non local Contribution for L=           1  read in
    real space projection operators read in
  non local Contribution for L=           1  read in
    real space projection operators read in
    PAW grid and wavefunctions read in

   number of l-projection  operators is LMAX  =           4
   number of lm-projection operators is LMMAX =           8

 POTCAR:    PAW_PBE H_h 06Feb2004                 
   VRHFIN =H: ultrasoft test                                                                        
   LEXCH  = PE                                                                                      
   EATOM  =    12.4884 eV,    0.9179 Ry                                                             
                                                                                                    
   TITEL  = PAW_PBE H_h 06Feb2004                                                                   
   LULTRA =        F    use ultrasoft PP ?                                                          
   IUNSCR =        0    unscreen: 0-lin 1-nonlin 2-no                                               
   RPACOR =    0.000    partial core radius                                                         
   POMASS =    1.000; ZVAL   =    1.000    mass and valenz                                          
   RCORE  =    0.800    outmost cutoff radius                                                       
   RWIGS  =    0.700; RWIGS  =    0.370    wigner-seitz radius (au A)                               
   ENMAX  =  700.000; ENMIN  =  350.000 eV                                                          
   RCLOC  =    0.701    cutoff for local pot                                                        
   LCOR   =        T    correct aug charges                                                         
   LPAW   =        T    paw PP                                                                      
   EAUG   = 1000.000                                                                                
   RMAX   =    0.819    core radius for proj-oper                                                   
   RAUG   =    1.000    factor for augmentation sphere                                              
   RDEP   =    0.817    radius for radial grids                                                     
   RDEPT  =    0.817    core radius for aug-charge                                                  
                                                                                                    
   Atomic configuration                                                                             
    2 entries                                                                                       
     n  l   j            E        occ.                                                              
     1  0  0.50        -6.4927   1.0000                                                             
     2  1  0.50        -3.4015   0.0000                                                             
   Description                                                                                      
     l       E           TYP  RCUT    TYP  RCUT                                                     
     0     -6.4927493     23  0.800                                                                 
     0      6.8029130     23  0.800                                                                 
     1     -6.8029130     23  0.800                                                                 
  local pseudopotential read in
  atomic valenz-charges read in
  non local Contribution for L=           0  read in
    real space projection operators read in
  non local Contribution for L=           0  read in
    real space projection operators read in
  non local Contribution for L=           1  read in
    real space projection operators read in
    PAW grid and wavefunctions read in

   number of l-projection  operators is LMAX  =           3
   number of lm-projection operators is LMMAX =           5

 POTCAR:    PAW_PBE N_h 06Feb2004                 
   VRHFIN =N: s2p3                                                                                  
   LEXCH  = PE                                                                                      
   EATOM  =   264.5486 eV,   19.4438 Ry                                                             
                                                                                                    
   TITEL  = PAW_PBE N_h 06Feb2004                                                                   
   LULTRA =        F    use ultrasoft PP ?                                                          
   IUNSCR =        1    unscreen: 0-lin 1-nonlin 2-no                                               
   RPACOR =    0.800    partial core radius                                                         
   POMASS =   14.001; ZVAL   =    5.000    mass and valenz                                          
   RCORE  =    1.100    outmost cutoff radius                                                       
   RWIGS  =    1.480; RWIGS  =    0.783    wigner-seitz radius (au A)                               
   ENMAX  =  700.000; ENMIN  =  500.000 eV                                                          
   ICORE  =        2    local potential                                                             
   LCOR   =        T    correct aug charges                                                         
   LPAW   =        T    paw PP                                                                      
   EAUG   =  904.640                                                                                
   DEXC   =    0.000                                                                                
   RMAX   =    1.127    core radius for proj-oper                                                   
   RAUG   =    1.300    factor for augmentation sphere                                              
   RDEP   =    1.115    radius for radial grids                                                     
   RDEPT  =    1.106    core radius for aug-charge                                                  
                                                                                                    
   Atomic configuration                                                                             
    4 entries                                                                                       
     n  l   j            E        occ.                                                              
     1  0  0.50      -384.7179   2.0000                                                             
     2  0  0.50       -18.5828   2.0000                                                             
     2  1  0.50        -7.0898   3.0000                                                             
     3  2  1.50        -6.8029   0.0000                                                             
   Description                                                                                      
     l       E           TYP  RCUT    TYP  RCUT                                                     
     0    -18.5828117     23  1.100                                                                 
     0    -15.0750597     23  1.100                                                                 
     1     -7.0897851     23  1.100                                                                 
     1     -1.9663412     23  1.100                                                                 
     2     -6.8029130      7  1.100                                                                 
  local pseudopotential read in
  partial core-charges read in
  partial kinetic energy density read in
  kinetic energy density of atom read in
  atomic valenz-charges read in
  non local Contribution for L=           0  read in
    real space projection operators read in
  non local Contribution for L=           0  read in
    real space projection operators read in
  non local Contribution for L=           1  read in
    real space projection operators read in
  non local Contribution for L=           1  read in
    real space projection operators read in
    PAW grid and wavefunctions read in

   number of l-projection  operators is LMAX  =           4
   number of lm-projection operators is LMMAX =           8

 POTCAR:    PAW_PBE O_h 06Feb2004                 
   VRHFIN =O: s2p4                                                                                  
   LEXCH  = PE                                                                                      
   EATOM  =   432.3788 eV,   31.7789 Ry                                                             
                                                                                                    
   TITEL  = PAW_PBE O_h 06Feb2004                                                                   
   LULTRA =        F    use ultrasoft PP ?                                                          
   IUNSCR =        1    unscreen: 0-lin 1-nonlin 2-no                                               
   RPACOR =    0.800    partial core radius                                                         
   POMASS =   16.000; ZVAL   =    6.000    mass and valenz                                          
   RCORE  =    1.100    outmost cutoff radius                                                       
   RWIGS  =    1.400; RWIGS  =    0.741    wigner-seitz radius (au A)                               
   ENMAX  =  700.000; ENMIN  =  500.000 eV                                                          
   ICORE  =        2    local potential                                                             
   LCOR   =        T    correct aug charges                                                         
   LPAW   =        T    paw PP                                                                      
   EAUG   =  888.804                                                                                
   DEXC   =    0.000                                                                                
   RMAX   =    1.128    core radius for proj-oper                                                   
   RAUG   =    1.300    factor for augmentation sphere                                              
   RDEP   =    1.125    radius for radial grids                                                     
   RDEPT  =    1.088    core radius for aug-charge                                                  
                                                                                                    
   Atomic configuration                                                                             
    4 entries                                                                                       
     n  l   j            E        occ.                                                              
     1  0  0.50      -514.6923   2.0000                                                             
     2  0  0.50       -23.9615   2.0000                                                             
     2  1  0.50        -9.0305   4.0000                                                             
     3  2  1.50        -9.5241   0.0000                                                             
   Description                                                                                      
     l       E           TYP  RCUT    TYP  RCUT                                                     
     0    -23.9615319     23  1.100                                                                 
     0    -25.3221145     23  1.100                                                                 
     1     -9.0304911     23  1.100                                                                 
     1     -5.4802209     23  1.100                                                                 
     2     -9.5240782      7  1.100                                                                 
  local pseudopotential read in
  partial core-charges read in
  partial kinetic energy density read in
  atomic valenz-charges read in
  non local Contribution for L=           0  read in
    real space projection operators read in
  non local Contribution for L=           0  read in
    real space projection operators read in
  non local Contribution for L=           1  read in
    real space projection operators read in
  non local Contribution for L=           1  read in
    real space projection operators read in
    PAW grid and wavefunctions read in

   number of l-projection  operators is LMAX  =           4
   number of lm-projection operators is LMMAX =           8

 -----------------------------------------------------------------------------
|                                                                             |
|               ----> ADVICE to this user running VASP <----                  |
|                                                                             |
|     You enforced a specific xc type in the INCAR file but a different       |
|     type was found in the POTCAR file.                                      |
|     I HOPE YOU KNOW WHAT YOU ARE DOING!                                     |
|                                                                             |
 -----------------------------------------------------------------------------

  PAW_PBE C_h 06Feb2004                 :
 energy of atom  1       EATOM= -147.1560
 kinetic energy error for atom=    0.0031 (will be added to EATOM!!)
  PAW_PBE H_h 06Feb2004                 :
 energy of atom  2       EATOM=  -12.4884
 kinetic energy error for atom=    0.0006 (will be added to EATOM!!)
  PAW_PBE N_h 06Feb2004                 :
 energy of atom  3       EATOM= -264.5486
 kinetic energy error for atom=    0.0081 (will be added to EATOM!!)
  PAW_PBE O_h 06Feb2004                 :
 energy of atom  4       EATOM= -432.3788
 kinetic energy error for atom=    0.0171 (will be added to EATOM!!)


 POSCAR:  C  H  N  O
  positions in cartesian coordinates
  No initial velocities read in
 exchange correlation table for  LEXCH =       40
   RHO(1)=    0.500       N(1)  =     2000
   RHO(2)=  100.500       N(2)  =     4000

 VTST: version 4.1, (05/19/21)

 CHAIN: initializing optimizer
 
 OPT: Using VASP Dynamics algorithm
 CHAIN: Read ICHAIN            0

 POSCAR:  C  H  N  O
  positions in cartesian coordinates
  No initial velocities read in



--------------------------------------------------------------------------------------------------------


 ion  position               nearest neighbor table
   1  0.450  0.512  0.529-  13 1.22  11 1.37  10 1.43
   2  0.527  0.473  0.489-  11 1.32  12 1.36   3 1.44
   3  0.549  0.523  0.468-   8 1.08   4 1.36   2 1.44
   4  0.518  0.567  0.480-   9 1.09  10 1.35   3 1.36
   5  0.448  0.594  0.518-  10 1.01
   6  0.541  0.393  0.497-  12 1.01
   7  0.593  0.428  0.463-  12 1.01
   8  0.587  0.526  0.445-   3 1.08
   9  0.530  0.607  0.466-   4 1.09
  10  0.471  0.562  0.509-   5 1.01   4 1.35   1 1.43
  11  0.481  0.468  0.517-   2 1.32   1 1.37
  12  0.555  0.427  0.478-   7 1.01   6 1.01   2 1.36
  13  0.407  0.511  0.555-   1 1.22

  LATTYP: Found a simple tetragonal cell.
 ALAT       =    25.0000000000
 C/A-ratio  =     0.8800000000
  
  Lattice vectors:
  
 A1 = (  25.0000000000,   0.0000000000,   0.0000000000)
 A2 = (   0.0000000000,  25.0000000000,   0.0000000000)
 A3 = (   0.0000000000,   0.0000000000,  22.0000000000)


Analysis of symmetry for initial positions (statically):
=====================================================================
 Subroutine PRICEL returns:
 Original cell was already a primitive cell.
 

 Routine SETGRP: Setting up the symmetry group for a 
 simple tetragonal supercell.


 Subroutine GETGRP returns: Found  1 space group operations
 (whereof  1 operations were pure point group operations)
 out of a pool of 16 trial point group operations.


The static configuration has the point symmetry C_1 .


Analysis of symmetry for dynamics (positions and initial velocities):
=====================================================================
 Subroutine PRICEL returns:
 Original cell was already a primitive cell.
 

 Routine SETGRP: Setting up the symmetry group for a 
 simple tetragonal supercell.


 Subroutine GETGRP returns: Found  1 space group operations
 (whereof  1 operations were pure point group operations)
 out of a pool of 16 trial point group operations.


The dynamic configuration has the point symmetry C_1 .


 Subroutine INISYM returns: Found  1 space group operations
 (whereof  1 operations are pure point group operations),
 and found     1 'primitive' translations


----------------------------------------------------------------------------------------

                                     Primitive cell                                     

  volume of cell :   13750.0000

  direct lattice vectors                    reciprocal lattice vectors
    25.000000000  0.000000000  0.000000000     0.040000000  0.000000000  0.000000000
     0.000000000 25.000000000  0.000000000     0.000000000  0.040000000  0.000000000
     0.000000000  0.000000000 22.000000000     0.000000000  0.000000000  0.045454545

  length of vectors
    25.000000000 25.000000000 22.000000000     0.040000000  0.040000000  0.045454545

  position of ions in fractional coordinates (direct lattice)
     0.449914400  0.511594200  0.529126591
     0.527198000  0.472777800  0.488758409
     0.548584800  0.522921800  0.468330682
     0.518292000  0.566995800  0.479733864
     0.447539600  0.594127400  0.517935227
     0.541128800  0.392851800  0.496748864
     0.593264800  0.428126200  0.463050682
     0.586578000  0.525890200  0.444781136
     0.530203600  0.607148200  0.466468409
     0.470853200  0.561887000  0.508833409
     0.480922000  0.467612600  0.517379773
     0.555025600  0.426965800  0.477677045
     0.406735200  0.511313400  0.555218864

  ion indices of the primitive-cell ions
   primitive index   ion index
                 1           1
                 2           2
                 3           3
                 4           4
                 5           5
                 6           6
                 7           7
                 8           8
                 9           9
                10          10
                11          11
                12          12
                13          13

----------------------------------------------------------------------------------------



 KPOINTS: auto                                    

Automatic generation of k-mesh.
 Grid dimensions read from file:
 generate k-points for:    1    1    1

 Generating k-lattice:

  Cartesian coordinates                     Fractional coordinates (reciprocal lattice)
     0.040000000  0.000000000  0.000000000     1.000000000  0.000000000  0.000000000
     0.000000000  0.040000000  0.000000000     0.000000000  1.000000000  0.000000000
     0.000000000  0.000000000  0.045454545     0.000000000  0.000000000  1.000000000

  Length of vectors
     0.040000000  0.040000000  0.045454545

  Shift w.r.t. Gamma in fractional coordinates (k-lattice)
     0.000000000  0.000000000  0.000000000

 
 Subroutine IBZKPT returns following result:
 ===========================================
 
 Found      1 irreducible k-points:
 
 Following reciprocal coordinates:
            Coordinates               Weight
  0.000000  0.000000  0.000000      1.000000
 
 Following cartesian coordinates:
            Coordinates               Weight
  0.000000  0.000000  0.000000      1.000000
 


--------------------------------------------------------------------------------------------------------




 Dimension of arrays:
   k-points           NKPTS =      1   k-points in BZ     NKDIM =      1   number of bands    NBANDS=     28
   number of dos      NEDOS =    301   number of ions     NIONS =     13
   non local maximal  LDIM  =      4   non local SUM 2l+1 LMDIM =      8
   total plane-waves  NPLWV = ******
   max r-space proj   IRMAX =      1   max aug-charges    IRDMAX=   9478
   dimension x,y,z NGX =   270 NGY =  270 NGZ =  240
   dimension x,y,z NGXF=   540 NGYF=  540 NGZF=  480
   support grid    NGXF=   540 NGYF=  540 NGZF=  480
   ions per type =               4   5   3   1
   NGX,Y,Z   is equivalent  to a cutoff of  17.95, 17.95, 18.14 a.u.
   NGXF,Y,Z  is equivalent  to a cutoff of  35.91, 35.91, 36.27 a.u.

 SYSTEM =  unknown system                          
 POSCAR =   C  H  N  O                             

 Startparameter for this run:
   NWRITE =      2    write-flag & timer
   PREC   = accura    normal or accurate (medium, high low for compatibility)
   ISTART =      0    job   : 0-new  1-cont  2-samecut
   ICHARG =      2    charge: 1-file 2-atom 10-const
   ISPIN  =      1    spin polarized calculation?
   LNONCOLLINEAR =      F non collinear calculations
   LSORBIT =      F    spin-orbit coupling
   INIWAV =      1    electr: 0-lowe 1-rand  2-diag
   LASPH  =      F    aspherical Exc in radial PAW
 Electronic Relaxation 1
   ENCUT  = 1000.0 eV  73.50 Ry    8.57 a.u.  64.46 64.46 56.73*2*pi/ulx,y,z
   ENINI  = 1000.0     initial cutoff
   ENAUG  = 1000.0 eV  augmentation charge cutoff
   NELM   =     60;   NELMIN=  2; NELMDL= -5     # of ELM steps 
   EDIFF  = 0.1E-06   stopping-criterion for ELM
   LREAL  =      F    real-space projection
   NLSPLINE    = F    spline interpolate recip. space projectors
   LCOMPAT=      F    compatible to vasp.4.4
   GGA_COMPAT  = T    GGA compatible to vasp.4.4-vasp.4.6
   LMAXPAW     = -100 max onsite density
   LMAXMIX     =    2 max onsite mixed and CHGCAR
   VOSKOWN=      0    Vosko Wilk Nusair interpolation
   ROPT   =    0.00000   0.00000   0.00000   0.00000
 Ionic relaxation
   EDIFFG = 0.1E-05   stopping-criterion for IOM
   NSW    =      0    number of steps for IOM
   NBLOCK =      1;   KBLOCK =      1    inner block; outer block 
   IBRION =     -1    ionic relax: 0-MD 1-quasi-New 2-CG
   NFREE  =      0    steps in history (QN), initial steepest desc. (CG)
   ISIF   =      0    stress and relaxation
   IWAVPR =     10    prediction:  0-non 1-charg 2-wave 3-comb
   ISYM   =      2    0-nonsym 1-usesym 2-fastsym
   LCORR  =      T    Harris-Foulkes like correction to forces

   POTIM  = 0.5000    time-step for ionic-motion
   TEIN   =    0.0    initial temperature
   TEBEG  =    0.0;   TEEND  =   0.0 temperature during run
   SMASS  =  -3.00    Nose mass-parameter (am)
   estimated Nose-frequenzy (Omega)   =  0.10E-29 period in steps = 0.13E+47 mass=  -0.143E-25a.u.
   SCALEE = 1.0000    scale energy and forces
   NPACO  =    256;   APACO  = 10.0  distance and # of slots for P.C.
   PSTRESS=    0.0 pullay stress

  Mass of Ions in am
   POMASS =  12.01  1.00 14.00 16.00
  Ionic Valenz
   ZVAL   =   4.00  1.00  5.00  6.00
  Atomic Wigner-Seitz radii
   RWIGS  =  -1.00 -1.00 -1.00 -1.00
  virtual crystal weights 
   VCA    =   1.00  1.00  1.00  1.00
   NELECT =      42.0000    total number of electrons
   NUPDOWN=      -1.0000    fix difference up-down

 DOS related values:
   EMIN   =  10.00;   EMAX   =-10.00  energy-range for DOS
   EFERMI =   0.00;   METHOD = LEGACY      
   ISMEAR =     0;   SIGMA  =   0.01  broadening in eV -4-tet -1-fermi 0-gaus

 Electronic relaxation 2 (details)
   IALGO  =     58    algorithm
   LDIAG  =      T    sub-space diagonalisation (order eigenvalues)
   LSUBROT=      F    optimize rotation matrix (better conditioning)
   TURBO    =      0    0=normal 1=particle mesh
   IRESTART =      0    0=no restart 2=restart with 2 vectors
   NREBOOT  =      0    no. of reboots
   NMIN     =      0    reboot dimension
   EREF     =   0.00    reference energy to select bands
   IMIX   =      4    mixing-type and parameters
     AMIX     =   0.40;   BMIX     =  1.00
     AMIX_MAG =   1.60;   BMIX_MAG =  1.00
     AMIN     =   0.10
     WC   =   100.;   INIMIX=   1;  MIXPRE=   1;  MAXMIX= -45

 Intra band minimization:
   WEIMIN = 0.0000     energy-eigenvalue tresh-hold
   EBREAK =  0.89E-09  absolut break condition
   DEPER  =   0.30     relativ break condition  

   TIME   =   0.40     timestep for ELM

  volume/ion in A,a.u.               =    1057.69      7137.66
  Fermi-wavevector in a.u.,A,eV,Ry     =   0.237533  0.448872  0.767666  0.056422
  Thomas-Fermi vector in A             =   1.039240

 Write flags
   LWAVE        =      F    write WAVECAR
   LDOWNSAMPLE  =      F    k-point downsampling of WAVECAR
   LCHARG       =      F    write CHGCAR
   LVTOT        =      F    write LOCPOT, total local potential
   LVHAR        =      F    write LOCPOT, Hartree potential only
   LELF         =      F    write electronic localiz. function (ELF)
   LORBIT       =      0    0 simple, 1 ext, 2 COOP (PROOUT), +10 PAW based schemes


 Dipole corrections
   LMONO  =      F    monopole corrections only (constant potential shift)
   LDIPOL =      F    correct potential (dipole corrections)
   IDIPOL =      0    1-x, 2-y, 3-z, 4-all directions 
   EPSILON=  1.0000000 bulk dielectric constant

 Exchange correlation treatment:
   GGA     =    RE    GGA type
   LEXCH   =    40    internal setting for exchange type
   LIBXC   =     F    Libxc                    
   VOSKOWN =     0    Vosko Wilk Nusair interpolation
   LHFCALC =     F    Hartree Fock is set to
   LHFONE  =     F    Hartree Fock one center treatment
   AEXX    =    0.0000 exact exchange contribution

 Linear response parameters
   LEPSILON=     F    determine dielectric tensor
   LRPA    =     F    only Hartree local field effects (RPA)
   LNABLA  =     F    use nabla operator in PAW spheres
   LVEL    =     F    velocity operator in full k-point grid
   CSHIFT  =0.1000    complex shift for real part using Kramers Kronig
   OMEGAMAX=  -1.0    maximum frequency
   DEG_THRESHOLD= 0.2000000E-02 threshold for treating states as degnerate
   RTIME   =   -0.100 relaxation time in fs
  (WPLASMAI=    0.000 imaginary part of plasma frequency in eV, 0.658/RTIME)
   DFIELD  = 0.0000000 0.0000000 0.0000000 field for delta impulse in time

  Optional k-point grid parameters
   LKPOINTS_OPT  =     F    use optional k-point grid
   KPOINTS_OPT_MODE=     1    mode for optional k-point grid

 Orbital magnetization related:
   ORBITALMAG=     F  switch on orbital magnetization
   LCHIMAG   =     F  perturbation theory with respect to B field
   DQ        =  0.001000  dq finite difference perturbation B field
   LLRAUG    =     F  two centre corrections for induced B field
   LBONE     =     F  B-component reconstruction in AE one-centre
   LVGVCALC  =     T  calculate vGv susceptibility
   LVGVAPPL  =     F  apply vGv susceptibility instead of pGv for G=0

 Random number generation:
   RANDOM_GENERATOR = DEFAULT
   PCG_SEED         = not used


--------------------------------------------------------------------------------------------------------


 Static calculation
 charge density and potential will be updated during run
 non-spin polarized calculation
 Conjugate gradient for all bands (Freysoldt, et al. PRB 79, 241103 (2009))
 preconditioned conjugated gradient                                        
 perform sub-space diagonalisation
    before iterative eigenvector-optimisation
 modified Broyden-mixing scheme, WC =      100.0
 initial mixing is a Kerker type mixing with AMIX =  0.4000 and BMIX =      1.0000
 Hartree-type preconditioning will be used
 using additional bands            7
 reciprocal scheme for non local part
 use partial core corrections
 no Harris-corrections to forces 
 use gradient corrections 
 use of overlap-Matrix (Vanderbilt PP)
 Gauss-broadening in eV      SIGMA  =   0.01


--------------------------------------------------------------------------------------------------------


  energy-cutoff  :     1000.00
  volume of cell :    13750.00
      direct lattice vectors                 reciprocal lattice vectors
    25.000000000  0.000000000  0.000000000     0.040000000  0.000000000  0.000000000
     0.000000000 25.000000000  0.000000000     0.000000000  0.040000000  0.000000000
     0.000000000  0.000000000 22.000000000     0.000000000  0.000000000  0.045454545

  length of vectors
    25.000000000 25.000000000 22.000000000     0.040000000  0.040000000  0.045454545



 k-points in units of 2pi/SCALE and weight: auto                                    
   0.00000000  0.00000000  0.00000000       1.000

 k-points in reciprocal lattice and weights: auto                                    
   0.00000000  0.00000000  0.00000000       1.000

 position of ions in fractional coordinates (direct lattice) 
   0.44991440  0.51159420  0.52912659
   0.52719800  0.47277780  0.48875841
   0.54858480  0.52292180  0.46833068
   0.51829200  0.56699580  0.47973386
   0.44753960  0.59412740  0.51793523
   0.54112880  0.39285180  0.49674886
   0.59326480  0.42812620  0.46305068
   0.58657800  0.52589020  0.44478114
   0.53020360  0.60714820  0.46646841
   0.47085320  0.56188700  0.50883341
   0.48092200  0.46761260  0.51737977
   0.55502560  0.42696580  0.47767705
   0.40673520  0.51131340  0.55521886

 position of ions in cartesian coordinates  (Angst):
  11.24786000 12.78985500 11.64078500
  13.17995000 11.81944500 10.75268500
  13.71462000 13.07304500 10.30327500
  12.95730000 14.17489500 10.55414500
  11.18849000 14.85318500 11.39457500
  13.52822000  9.82129500 10.92847500
  14.83162000 10.70315500 10.18711500
  14.66445000 13.14725500  9.78518500
  13.25509000 15.17870500 10.26230500
  11.77133000 14.04717500 11.19433500
  12.02305000 11.69031500 11.38235500
  13.87564000 10.67414500 10.50889500
  10.16838000 12.78283500 12.21481500



--------------------------------------------------------------------------------------------------------


 use parallel FFT for orbitals z direction half grid
 k-point   1 :   0.0000 0.0000 0.0000  plane waves:  493619

 maximum and minimum number of plane-waves per node :     15433    15419

 maximum number of plane-waves:    493619
 maximum index in each direction: 
   IXMAX=   64   IYMAX=   64   IZMAX=   56
   IXMIN=  -64   IYMIN=  -64   IZMIN=    0


 parallel 3D FFT for wavefunctions:
    minimum data exchange during FFTs selected (reduces bandwidth)
 parallel 3D FFT for charge:
    minimum data exchange during FFTs selected (reduces bandwidth)


 total amount of memory used by VASP MPI-rank0   213610. kBytes
=======================================================================

   base      :      30000. kBytes
   nonl-proj :       7162. kBytes
   fftplans  :      54279. kBytes
   grid      :     116981. kBytes
   one-center:          1. kBytes
   wavefun   :       5187. kBytes

     INWAV:  cpu time      0.0000: real time      0.0000
 Broyden mixing: mesh for mixing (old mesh)
   NGX =129   NGY =129   NGZ =113
  (NGX  =540   NGY  =540   NGZ  =480)
  gives a total of ****** points

 initial charge density was supplied:
 charge density of overlapping atoms calculated
 number of electron      42.0000000 magnetization 
 keeping initial charge density in first step


--------------------------------------------------------------------------------------------------------


 Maximum index for augmentation-charges          506 (set IRDMAX)


--------------------------------------------------------------------------------------------------------


 First call to EWALD:  gamma=   0.074
 Maximum number of real-space cells 3x 3x 3
 Maximum number of reciprocal cells 3x 3x 3

    FEWALD:  cpu time      0.0027: real time      0.0027


--------------------------------------- Ionic step        1  -------------------------------------------




--------------------------------------- Iteration      1(   1)  ---------------------------------------


    POTLOK:  cpu time      1.9901: real time      1.9917
    SETDIJ:  cpu time      0.0097: real time      0.0099
    TRIAL :  cpu time      2.0748: real time      2.0771
    CORREC:  cpu time      0.0024: real time      0.0024
    --------------------------------------------
      LOOP:  cpu time      4.0947: real time      4.0987

 eigenvalue-minimisations  :    72
 total energy-change (2. order) : 0.4453123E+03  (-0.1028693E+04)
 number of electron      42.0000000 magnetization 
 augmentation part       42.0000000 magnetization 

 Free energy of the ion-electron system (eV)
  ---------------------------------------------------
  alpha Z        PSCENC =         0.38812818
  Ewald energy   TEWEN  =      3532.69581032
  -Hartree energ DENC   =     -4891.80682519
  -exchange      EXHF   =         0.00000000
  -V(xc)+E(xc)   XCENC  =       115.11905230
  PAW double counting   =      1432.46165478    -1406.12131557
  entropy T*S    EENTRO =        -0.00000000
  eigenvalues    EBANDS =      -213.34620799
  atomic energy  EATOM  =      1875.92199046
  ---------------------------------------------------
  free energy    TOTEN  =       445.31228730 eV

  energy without entropy =      445.31228730  energy(sigma->0) =      445.31228730


--------------------------------------------------------------------------------------------------------




--------------------------------------- Iteration      1(   2)  ---------------------------------------


    TRIAL :  cpu time      2.7640: real time      2.7658
    CORREC:  cpu time      0.0003: real time      0.0003
    --------------------------------------------
      LOOP:  cpu time      2.7832: real time      2.7956

 eigenvalue-minimisations  :   108
 total energy-change (2. order) :-0.2214619E+03  (-0.2183514E+03)
 number of electron      42.0000000 magnetization 
 augmentation part       42.0000000 magnetization 

 Free energy of the ion-electron system (eV)
  ---------------------------------------------------
  alpha Z        PSCENC =         0.38812818
  Ewald energy   TEWEN  =      3532.69581032
  -Hartree energ DENC   =     -4891.80682519
  -exchange      EXHF   =         0.00000000
  -V(xc)+E(xc)   XCENC  =       115.11905230
  PAW double counting   =      1432.46165478    -1406.12131557
  entropy T*S    EENTRO =        -0.00001024
  eigenvalues    EBANDS =      -434.80812791
  atomic energy  EATOM  =      1875.92199046
  ---------------------------------------------------
  free energy    TOTEN  =       223.85035713 eV

  energy without entropy =      223.85036737  energy(sigma->0) =      223.85036225


--------------------------------------------------------------------------------------------------------




--------------------------------------- Iteration      1(   3)  ---------------------------------------


    TRIAL :  cpu time      2.5185: real time      2.5202
    CORREC:  cpu time      0.0001: real time      0.0001
    --------------------------------------------
      LOOP:  cpu time      2.5299: real time      2.5491

 eigenvalue-minimisations  :    96
 total energy-change (2. order) :-0.2124871E+03  (-0.2077271E+03)
 number of electron      42.0000000 magnetization 
 augmentation part       42.0000000 magnetization 

 Free energy of the ion-electron system (eV)
  ---------------------------------------------------
  alpha Z        PSCENC =         0.38812818
  Ewald energy   TEWEN  =      3532.69581032
  -Hartree energ DENC   =     -4891.80682519
  -exchange      EXHF   =         0.00000000
  -V(xc)+E(xc)   XCENC  =       115.11905230
  PAW double counting   =      1432.46165478    -1406.12131557
  entropy T*S    EENTRO =        -0.00000000
  eigenvalues    EBANDS =      -647.29522417
  atomic energy  EATOM  =      1875.92199046
  ---------------------------------------------------
  free energy    TOTEN  =        11.36327111 eV

  energy without entropy =       11.36327111  energy(sigma->0) =       11.36327111


--------------------------------------------------------------------------------------------------------




--------------------------------------- Iteration      1(   4)  ---------------------------------------


    TRIAL :  cpu time      1.8686: real time      1.8698
    CORREC:  cpu time      0.0001: real time      0.0001
    --------------------------------------------
      LOOP:  cpu time      1.8979: real time      1.8993

 eigenvalue-minimisations  :    64
 total energy-change (2. order) :-0.8445081E+02  (-0.7956590E+02)
 number of electron      42.0000000 magnetization 
 augmentation part       42.0000000 magnetization 

 Free energy of the ion-electron system (eV)
  ---------------------------------------------------
  alpha Z        PSCENC =         0.38812818
  Ewald energy   TEWEN  =      3532.69581032
  -Hartree energ DENC   =     -4891.80682519
  -exchange      EXHF   =         0.00000000
  -V(xc)+E(xc)   XCENC  =       115.11905230
  PAW double counting   =      1432.46165478    -1406.12131557
  entropy T*S    EENTRO =        -0.00000000
  eigenvalues    EBANDS =      -731.74603618
  atomic energy  EATOM  =      1875.92199046
  ---------------------------------------------------
  free energy    TOTEN  =       -73.08754090 eV

  energy without entropy =      -73.08754090  energy(sigma->0) =      -73.08754090


--------------------------------------------------------------------------------------------------------




--------------------------------------- Iteration      1(   5)  ---------------------------------------


    TRIAL :  cpu time      1.8698: real time      1.8714
    CORREC:  cpu time      0.0001: real time      0.0001
    CHARGE:  cpu time      0.4952: real time      0.4955
    --------------------------------------------
      LOOP:  cpu time      2.3773: real time      2.3957

 eigenvalue-minimisations  :    64
 total energy-change (2. order) :-0.1780574E+02  (-0.1775340E+02)
 number of electron      42.0000000 magnetization 
 augmentation part       -0.0076140 magnetization 

 Free energy of the ion-electron system (eV)
  ---------------------------------------------------
  alpha Z        PSCENC =         0.38812818
  Ewald energy   TEWEN  =      3532.69581032
  -Hartree energ DENC   =     -4891.80682519
  -exchange      EXHF   =         0.00000000
  -V(xc)+E(xc)   XCENC  =       115.11905230
  PAW double counting   =      1432.46165478    -1406.12131557
  entropy T*S    EENTRO =        -0.00000000
  eigenvalues    EBANDS =      -749.55177430
  atomic energy  EATOM  =      1875.92199046
  ---------------------------------------------------
  free energy    TOTEN  =       -90.89327902 eV

  energy without entropy =      -90.89327902  energy(sigma->0) =      -90.89327902


--------------------------------------------------------------------------------------------------------




--------------------------------------- Iteration      1(   6)  ---------------------------------------


    POTLOK:  cpu time      2.0324: real time      2.0339
    SETDIJ:  cpu time      0.0128: real time      0.0128
    TRIAL :  cpu time      1.1430: real time      1.1452
    CORREC:  cpu time      2.8026: real time      2.8040
    CHARGE:  cpu time      0.4469: real time      0.4475
    --------------------------------------------
      LOOP:  cpu time      6.4508: real time      6.4721

 eigenvalue-minimisations  :     0
 total energy-change (2. order) : 0.1376795E+02  (-0.5692532E+01)
 number of electron      42.0000000 magnetization 
 augmentation part       -0.0299805 magnetization 

 Free energy of the ion-electron system (eV)
  ---------------------------------------------------
  alpha Z        PSCENC =         0.38812818
  Ewald energy   TEWEN  =      3532.69581032
  -Hartree energ DENC   =     -5209.05347741
  -exchange      EXHF   =         0.00000000
  -V(xc)+E(xc)   XCENC  =       128.05899333
  PAW double counting   =     18697.85990638   -18672.90537166
  entropy T*S    EENTRO =        -0.00000000
  eigenvalues    EBANDS =      -430.09130767
  atomic energy  EATOM  =      1875.92199046
  ---------------------------------------------------
  free energy    TOTEN  =       -77.12532808 eV

  energy without entropy =      -77.12532808  energy(sigma->0) =      -77.12532808


--------------------------------------------------------------------------------------------------------




--------------------------------------- Iteration      1(   7)  ---------------------------------------


    POTLOK:  cpu time      2.0443: real time      2.0453
    SETDIJ:  cpu time      0.0026: real time      0.0026
    TRIAL :  cpu time      1.1408: real time      1.1415
    CORREC:  cpu time      2.7983: real time      2.8001
    CHARGE:  cpu time      0.4490: real time      0.4490
    --------------------------------------------
      LOOP:  cpu time      6.4500: real time      6.4690

 eigenvalue-minimisations  :     0
 total energy-change (2. order) :-0.5742261E+01  (-0.1043324E+01)
 number of electron      42.0000000 magnetization 
 augmentation part       -0.0492914 magnetization 

 Free energy of the ion-electron system (eV)
  ---------------------------------------------------
  alpha Z        PSCENC =         0.38812818
  Ewald energy   TEWEN  =      3532.69581032
  -Hartree energ DENC   =     -5065.07180540
  -exchange      EXHF   =         0.00000000
  -V(xc)+E(xc)   XCENC  =       122.46988126
  PAW double counting   =     22084.58050454   -22059.01609140
  entropy T*S    EENTRO =        -0.00000000
  eigenvalues    EBANDS =      -574.83600746
  atomic energy  EATOM  =      1875.92199046
  ---------------------------------------------------
  free energy    TOTEN  =       -82.86758949 eV

  energy without entropy =      -82.86758949  energy(sigma->0) =      -82.86758949


--------------------------------------------------------------------------------------------------------




--------------------------------------- Iteration      1(   8)  ---------------------------------------


    POTLOK:  cpu time      2.0336: real time      2.0348
    SETDIJ:  cpu time      0.0072: real time      0.0072
    TRIAL :  cpu time      1.1365: real time      1.1371
    CORREC:  cpu time      2.7953: real time      2.7968
    CHARGE:  cpu time      0.4515: real time      0.4515
    --------------------------------------------
      LOOP:  cpu time      6.4388: real time      6.4571

 eigenvalue-minimisations  :     0
 total energy-change (2. order) :-0.1047018E+01  (-0.4089899E+00)
 number of electron      42.0000000 magnetization 
 augmentation part       -0.0459080 magnetization 

 Free energy of the ion-electron system (eV)
  ---------------------------------------------------
  alpha Z        PSCENC =         0.38812818
  Ewald energy   TEWEN  =      3532.69581032
  -Hartree energ DENC   =     -5071.74459712
  -exchange      EXHF   =         0.00000000
  -V(xc)+E(xc)   XCENC  =       122.69297305
  PAW double counting   =     22554.14549363   -22528.51651304
  entropy T*S    EENTRO =        -0.00000000
  eigenvalues    EBANDS =      -569.49789269
  atomic energy  EATOM  =      1875.92199046
  ---------------------------------------------------
  free energy    TOTEN  =       -83.91460722 eV

  energy without entropy =      -83.91460722  energy(sigma->0) =      -83.91460722


--------------------------------------------------------------------------------------------------------




--------------------------------------- Iteration      1(   9)  ---------------------------------------


    POTLOK:  cpu time      2.0347: real time      2.0365
    SETDIJ:  cpu time      0.0020: real time      0.0020
    TRIAL :  cpu time      1.1351: real time      1.1356
    CORREC:  cpu time      2.7960: real time      2.7972
    CHARGE:  cpu time      0.4502: real time      0.4507
    --------------------------------------------
      LOOP:  cpu time      6.4311: real time      6.4511

 eigenvalue-minimisations  :     0
 total energy-change (2. order) :-0.4090992E+00  (-0.1846178E+00)
 number of electron      42.0000000 magnetization 
 augmentation part       -0.0434936 magnetization 

 Free energy of the ion-electron system (eV)
  ---------------------------------------------------
  alpha Z        PSCENC =         0.38812818
  Ewald energy   TEWEN  =      3532.69581032
  -Hartree energ DENC   =     -5079.23094084
  -exchange      EXHF   =         0.00000000
  -V(xc)+E(xc)   XCENC  =       122.87037023
  PAW double counting   =     22663.51207202   -22637.89139081
  entropy T*S    EENTRO =        -0.00000000
  eigenvalues    EBANDS =      -562.58974593
  atomic energy  EATOM  =      1875.92199046
  ---------------------------------------------------
  free energy    TOTEN  =       -84.32370638 eV

  energy without entropy =      -84.32370638  energy(sigma->0) =      -84.32370638


--------------------------------------------------------------------------------------------------------




--------------------------------------- Iteration      1(  10)  ---------------------------------------


    POTLOK:  cpu time      2.0403: real time      2.0410
    SETDIJ:  cpu time      0.0076: real time      0.0076
    TRIAL :  cpu time      1.1329: real time      1.1336
    CORREC:  cpu time      2.7932: real time      2.7946
    CHARGE:  cpu time      0.4495: real time      0.4495
    --------------------------------------------
      LOOP:  cpu time      6.4521: real time      6.4551

 eigenvalue-minimisations  :     0
 total energy-change (2. order) :-0.1838847E+00  (-0.7241565E-01)
 number of electron      42.0000000 magnetization 
 augmentation part       -0.0424383 magnetization 

 Free energy of the ion-electron system (eV)
  ---------------------------------------------------
  alpha Z        PSCENC =         0.38812818
  Ewald energy   TEWEN  =      3532.69581032
  -Hartree energ DENC   =     -5074.99754067
  -exchange      EXHF   =         0.00000000
  -V(xc)+E(xc)   XCENC  =       122.75950944
  PAW double counting   =     22351.55083506   -22325.93629694
  entropy T*S    EENTRO =        -0.00000000
  eigenvalues    EBANDS =      -566.89002692
  atomic energy  EATOM  =      1875.92199046
  ---------------------------------------------------
  free energy    TOTEN  =       -84.50759107 eV

  energy without entropy =      -84.50759107  energy(sigma->0) =      -84.50759107


--------------------------------------------------------------------------------------------------------




--------------------------------------- Iteration      1(  11)  ---------------------------------------


    POTLOK:  cpu time      2.0331: real time      2.0346
    SETDIJ:  cpu time      0.0036: real time      0.0036
    TRIAL :  cpu time      1.1324: real time      1.1333
    CORREC:  cpu time      2.7796: real time      2.7806
    CHARGE:  cpu time      0.4495: real time      0.4500
    --------------------------------------------
      LOOP:  cpu time      6.4155: real time      6.4312

 eigenvalue-minimisations  :     0
 total energy-change (2. order) :-0.7219978E-01  (-0.3377679E-01)
 number of electron      42.0000000 magnetization 
 augmentation part       -0.0416820 magnetization 

 Free energy of the ion-electron system (eV)
  ---------------------------------------------------
  alpha Z        PSCENC =         0.38812818
  Ewald energy   TEWEN  =      3532.69581032
  -Hartree energ DENC   =     -5072.57316587
  -exchange      EXHF   =         0.00000000
  -V(xc)+E(xc)   XCENC  =       122.72306978
  PAW double counting   =     22063.35113171   -22037.74911518
  entropy T*S    EENTRO =        -0.00000000
  eigenvalues    EBANDS =      -569.33764024
  atomic energy  EATOM  =      1875.92199046
  ---------------------------------------------------
  free energy    TOTEN  =       -84.57979084 eV

  energy without entropy =      -84.57979084  energy(sigma->0) =      -84.57979084


--------------------------------------------------------------------------------------------------------




--------------------------------------- Iteration      1(  12)  ---------------------------------------


    POTLOK:  cpu time      2.0314: real time      2.0325
    SETDIJ:  cpu time      0.0035: real time      0.0035
    TRIAL :  cpu time      1.1313: real time      1.1319
    CORREC:  cpu time      2.7877: real time      2.7896
    CHARGE:  cpu time      0.4502: real time      0.4502
    --------------------------------------------
      LOOP:  cpu time      6.4160: real time      6.4364

 eigenvalue-minimisations  :     0
 total energy-change (2. order) :-0.3368786E-01  (-0.1754816E-01)
 number of electron      42.0000000 magnetization 
 augmentation part       -0.0419324 magnetization 

 Free energy of the ion-electron system (eV)
  ---------------------------------------------------
  alpha Z        PSCENC =         0.38812818
  Ewald energy   TEWEN  =      3532.69581032
  -Hartree energ DENC   =     -5072.74754321
  -exchange      EXHF   =         0.00000000
  -V(xc)+E(xc)   XCENC  =       122.71244270
  PAW double counting   =     22007.36214148   -21981.76551940
  entropy T*S    EENTRO =        -0.00000000
  eigenvalues    EBANDS =      -569.18092924
  atomic energy  EATOM  =      1875.92199046
  ---------------------------------------------------
  free energy    TOTEN  =       -84.61347871 eV

  energy without entropy =      -84.61347871  energy(sigma->0) =      -84.61347871


--------------------------------------------------------------------------------------------------------




--------------------------------------- Iteration      1(  13)  ---------------------------------------


    POTLOK:  cpu time      2.0301: real time      2.0313
    SETDIJ:  cpu time      0.0033: real time      0.0033
    TRIAL :  cpu time      1.1385: real time      1.1389
    CORREC:  cpu time      2.7785: real time      2.7803
    CHARGE:  cpu time      0.4483: real time      0.4490
    --------------------------------------------
      LOOP:  cpu time      6.4126: real time      6.4321

 eigenvalue-minimisations  :     0
 total energy-change (2. order) :-0.1753682E-01  (-0.9265213E-02)
 number of electron      42.0000000 magnetization 
 augmentation part       -0.0422004 magnetization 

 Free energy of the ion-electron system (eV)
  ---------------------------------------------------
  alpha Z        PSCENC =         0.38812818
  Ewald energy   TEWEN  =      3532.69581032
  -Hartree energ DENC   =     -5072.48161690
  -exchange      EXHF   =         0.00000000
  -V(xc)+E(xc)   XCENC  =       122.68929980
  PAW double counting   =     22081.68708572   -22056.08856035
  entropy T*S    EENTRO =        -0.00000000
  eigenvalues    EBANDS =      -569.44315275
  atomic energy  EATOM  =      1875.92199046
  ---------------------------------------------------
  free energy    TOTEN  =       -84.63101552 eV

  energy without entropy =      -84.63101552  energy(sigma->0) =      -84.63101552


--------------------------------------------------------------------------------------------------------




--------------------------------------- Iteration      1(  14)  ---------------------------------------


    POTLOK:  cpu time      2.0262: real time      2.0271
    SETDIJ:  cpu time      0.0036: real time      0.0036
    TRIAL :  cpu time      1.1337: real time      1.1344
    CORREC:  cpu time      2.7768: real time      2.7784
    CHARGE:  cpu time      0.4490: real time      0.4491
    --------------------------------------------
      LOOP:  cpu time      6.4020: real time      6.4213

 eigenvalue-minimisations  :     0
 total energy-change (2. order) :-0.9269971E-02  (-0.5014781E-02)
 number of electron      42.0000000 magnetization 
 augmentation part       -0.0420407 magnetization 

 Free energy of the ion-electron system (eV)
  ---------------------------------------------------
  alpha Z        PSCENC =         0.38812818
  Ewald energy   TEWEN  =      3532.69581032
  -Hartree energ DENC   =     -5072.31558182
  -exchange      EXHF   =         0.00000000
  -V(xc)+E(xc)   XCENC  =       122.68707448
  PAW double counting   =     22127.02433401   -22101.42490313
  entropy T*S    EENTRO =        -0.00000000
  eigenvalues    EBANDS =      -569.61713799
  atomic energy  EATOM  =      1875.92199046
  ---------------------------------------------------
  free energy    TOTEN  =       -84.64028549 eV

  energy without entropy =      -84.64028549  energy(sigma->0) =      -84.64028549


--------------------------------------------------------------------------------------------------------




--------------------------------------- Iteration      1(  15)  ---------------------------------------


    POTLOK:  cpu time      2.0231: real time      2.0243
    SETDIJ:  cpu time      0.0028: real time      0.0028
    TRIAL :  cpu time      1.1329: real time      1.1335
    CORREC:  cpu time      2.7603: real time      2.7619
    CHARGE:  cpu time      0.4501: real time      0.4507
    --------------------------------------------
      LOOP:  cpu time      6.3984: real time      6.4028

 eigenvalue-minimisations  :     0
 total energy-change (2. order) :-0.5021507E-02  (-0.2196747E-02)
 number of electron      42.0000000 magnetization 
 augmentation part       -0.0417824 magnetization 

 Free energy of the ion-electron system (eV)
  ---------------------------------------------------
  alpha Z        PSCENC =         0.38812818
  Ewald energy   TEWEN  =      3532.69581032
  -Hartree energ DENC   =     -5073.06134796
  -exchange      EXHF   =         0.00000000
  -V(xc)+E(xc)   XCENC  =       122.70663413
  PAW double counting   =     22116.43601733   -22090.83746132
  entropy T*S    EENTRO =        -0.00000000
  eigenvalues    EBANDS =      -568.89507813
  atomic energy  EATOM  =      1875.92199046
  ---------------------------------------------------
  free energy    TOTEN  =       -84.64530700 eV

  energy without entropy =      -84.64530700  energy(sigma->0) =      -84.64530700


--------------------------------------------------------------------------------------------------------




--------------------------------------- Iteration      1(  16)  ---------------------------------------


    POTLOK:  cpu time      1.9966: real time      1.9976
    SETDIJ:  cpu time      0.0062: real time      0.0062
    TRIAL :  cpu time      1.1326: real time      1.1332
    CORREC:  cpu time      2.7261: real time      2.7272
    CHARGE:  cpu time      0.4484: real time      0.4489
    --------------------------------------------
      LOOP:  cpu time      6.3234: real time      6.3432

 eigenvalue-minimisations  :     0
 total energy-change (2. order) :-0.2198950E-02  (-0.7113252E-03)
 number of electron      42.0000000 magnetization 
 augmentation part       -0.0416943 magnetization 

 Free energy of the ion-electron system (eV)
  ---------------------------------------------------
  alpha Z        PSCENC =         0.38812818
  Ewald energy   TEWEN  =      3532.69581032
  -Hartree energ DENC   =     -5073.36860889
  -exchange      EXHF   =         0.00000000
  -V(xc)+E(xc)   XCENC  =       122.71356435
  PAW double counting   =     22092.54004767   -22066.94199917
  entropy T*S    EENTRO =        -0.00000000
  eigenvalues    EBANDS =      -568.59643887
  atomic energy  EATOM  =      1875.92199046
  ---------------------------------------------------
  free energy    TOTEN  =       -84.64750595 eV

  energy without entropy =      -84.64750595  energy(sigma->0) =      -84.64750595


--------------------------------------------------------------------------------------------------------




--------------------------------------- Iteration      1(  17)  ---------------------------------------


    POTLOK:  cpu time      1.9730: real time      1.9742
    SETDIJ:  cpu time      0.0023: real time      0.0023
    TRIAL :  cpu time      1.1353: real time      1.1359
    CORREC:  cpu time      2.7156: real time      2.7177
    CHARGE:  cpu time      0.4498: real time      0.4498
    --------------------------------------------
      LOOP:  cpu time      6.2897: real time      6.3091

 eigenvalue-minimisations  :     0
 total energy-change (2. order) :-0.7120640E-03  (-0.2372293E-03)
 number of electron      42.0000000 magnetization 
 augmentation part       -0.0416722 magnetization 

 Free energy of the ion-electron system (eV)
  ---------------------------------------------------
  alpha Z        PSCENC =         0.38812818
  Ewald energy   TEWEN  =      3532.69581032
  -Hartree energ DENC   =     -5073.34122794
  -exchange      EXHF   =         0.00000000
  -V(xc)+E(xc)   XCENC  =       122.71427790
  PAW double counting   =     22078.89242275   -22053.29419475
  entropy T*S    EENTRO =        -0.00000000
  eigenvalues    EBANDS =      -568.62542494
  atomic energy  EATOM  =      1875.92199046
  ---------------------------------------------------
  free energy    TOTEN  =       -84.64821801 eV

  energy without entropy =      -84.64821801  energy(sigma->0) =      -84.64821801


--------------------------------------------------------------------------------------------------------




--------------------------------------- Iteration      1(  18)  ---------------------------------------


    POTLOK:  cpu time      1.9527: real time      1.9538
    SETDIJ:  cpu time      0.0100: real time      0.0100
    TRIAL :  cpu time      1.1329: real time      1.1334
    CORREC:  cpu time      2.7090: real time      2.7103
    CHARGE:  cpu time      0.4506: real time      0.4507
    --------------------------------------------
      LOOP:  cpu time      6.2841: real time      6.2872

 eigenvalue-minimisations  :     0
 total energy-change (2. order) :-0.2371739E-03  (-0.9688106E-04)
 number of electron      42.0000000 magnetization 
 augmentation part       -0.0417253 magnetization 

 Free energy of the ion-electron system (eV)
  ---------------------------------------------------
  alpha Z        PSCENC =         0.38812818
  Ewald energy   TEWEN  =      3532.69581032
  -Hartree energ DENC   =     -5073.46877173
  -exchange      EXHF   =         0.00000000
  -V(xc)+E(xc)   XCENC  =       122.71959198
  PAW double counting   =     22076.79042247   -22051.19240401
  entropy T*S    EENTRO =        -0.00000000
  eigenvalues    EBANDS =      -568.50322284
  atomic energy  EATOM  =      1875.92199046
  ---------------------------------------------------
  free energy    TOTEN  =       -84.64845519 eV

  energy without entropy =      -84.64845519  energy(sigma->0) =      -84.64845519


--------------------------------------------------------------------------------------------------------




--------------------------------------- Iteration      1(  19)  ---------------------------------------


    POTLOK:  cpu time      1.9474: real time      1.9487
    SETDIJ:  cpu time      0.0076: real time      0.0076
    TRIAL :  cpu time      1.1313: real time      1.1328
    CORREC:  cpu time      2.7059: real time      2.7072
    CHARGE:  cpu time      0.4489: real time      0.4495
    --------------------------------------------
      LOOP:  cpu time      6.2536: real time      6.2750

 eigenvalue-minimisations  :     0
 total energy-change (2. order) :-0.9668679E-04  (-0.4585114E-04)
 number of electron      42.0000000 magnetization 
 augmentation part       -0.0417740 magnetization 

 Free energy of the ion-electron system (eV)
  ---------------------------------------------------
  alpha Z        PSCENC =         0.38812818
  Ewald energy   TEWEN  =      3532.69581032
  -Hartree energ DENC   =     -5073.41882075
  -exchange      EXHF   =         0.00000000
  -V(xc)+E(xc)   XCENC  =       122.71868215
  PAW double counting   =     22084.04725775   -22058.44899015
  entropy T*S    EENTRO =        -0.00000000
  eigenvalues    EBANDS =      -568.55260984
  atomic energy  EATOM  =      1875.92199046
  ---------------------------------------------------
  free energy    TOTEN  =       -84.64855188 eV

  energy without entropy =      -84.64855188  energy(sigma->0) =      -84.64855188


--------------------------------------------------------------------------------------------------------




--------------------------------------- Iteration      1(  20)  ---------------------------------------


    POTLOK:  cpu time      1.9486: real time      1.9496
    SETDIJ:  cpu time      0.0031: real time      0.0031
    TRIAL :  cpu time      1.1340: real time      1.1345
    CORREC:  cpu time      2.7032: real time      2.7052
    CHARGE:  cpu time      0.4497: real time      0.4497
    --------------------------------------------
      LOOP:  cpu time      6.2523: real time      6.2715

 eigenvalue-minimisations  :     0
 total energy-change (2. order) :-0.4553041E-04  (-0.2244948E-04)
 number of electron      42.0000000 magnetization 
 augmentation part       -0.0417995 magnetization 

 Free energy of the ion-electron system (eV)
  ---------------------------------------------------
  alpha Z        PSCENC =         0.38812818
  Ewald energy   TEWEN  =      3532.69581032
  -Hartree energ DENC   =     -5073.38887222
  -exchange      EXHF   =         0.00000000
  -V(xc)+E(xc)   XCENC  =       122.71838003
  PAW double counting   =     22091.88574273   -22066.28735759
  entropy T*S    EENTRO =        -0.00000000
  eigenvalues    EBANDS =      -568.58241930
  atomic energy  EATOM  =      1875.92199046
  ---------------------------------------------------
  free energy    TOTEN  =       -84.64859741 eV

  energy without entropy =      -84.64859741  energy(sigma->0) =      -84.64859741


--------------------------------------------------------------------------------------------------------




--------------------------------------- Iteration      1(  21)  ---------------------------------------


    POTLOK:  cpu time      1.9411: real time      1.9422
    SETDIJ:  cpu time      0.0080: real time      0.0080
    TRIAL :  cpu time      1.1330: real time      1.1337
    CORREC:  cpu time      2.7011: real time      2.7030
    CHARGE:  cpu time      0.4488: real time      0.4488
    --------------------------------------------
      LOOP:  cpu time      6.2613: real time      6.2650

 eigenvalue-minimisations  :     0
 total energy-change (2. order) :-0.2217465E-04  (-0.1033961E-04)
 number of electron      42.0000000 magnetization 
 augmentation part       -0.0418170 magnetization 

 Free energy of the ion-electron system (eV)
  ---------------------------------------------------
  alpha Z        PSCENC =         0.38812818
  Ewald energy   TEWEN  =      3532.69581032
  -Hartree energ DENC   =     -5073.40461342
  -exchange      EXHF   =         0.00000000
  -V(xc)+E(xc)   XCENC  =       122.71894561
  PAW double counting   =     22096.25778021   -22070.65943472
  entropy T*S    EENTRO =        -0.00000000
  eigenvalues    EBANDS =      -568.56722622
  atomic energy  EATOM  =      1875.92199046
  ---------------------------------------------------
  free energy    TOTEN  =       -84.64861958 eV

  energy without entropy =      -84.64861958  energy(sigma->0) =      -84.64861958


--------------------------------------------------------------------------------------------------------




--------------------------------------- Iteration      1(  22)  ---------------------------------------


    POTLOK:  cpu time      1.9428: real time      1.9439
    SETDIJ:  cpu time      0.0053: real time      0.0053
    TRIAL :  cpu time      1.1326: real time      1.1332
    CORREC:  cpu time      2.7042: real time      2.7062
    CHARGE:  cpu time      0.4487: real time      0.4494
    --------------------------------------------
      LOOP:  cpu time      6.2474: real time      6.2665

 eigenvalue-minimisations  :     0
 total energy-change (2. order) :-0.1027043E-04  (-0.4347375E-05)
 number of electron      42.0000000 magnetization 
 augmentation part       -0.0418108 magnetization 

 Free energy of the ion-electron system (eV)
  ---------------------------------------------------
  alpha Z        PSCENC =         0.38812818
  Ewald energy   TEWEN  =      3532.69581032
  -Hartree energ DENC   =     -5073.36780470
  -exchange      EXHF   =         0.00000000
  -V(xc)+E(xc)   XCENC  =       122.71770137
  PAW double counting   =     22097.55344068   -22071.95504978
  entropy T*S    EENTRO =        -0.00000000
  eigenvalues    EBANDS =      -568.60284637
  atomic energy  EATOM  =      1875.92199046
  ---------------------------------------------------
  free energy    TOTEN  =       -84.64862985 eV

  energy without entropy =      -84.64862985  energy(sigma->0) =      -84.64862985


--------------------------------------------------------------------------------------------------------




--------------------------------------- Iteration      1(  23)  ---------------------------------------


    POTLOK:  cpu time      1.9408: real time      1.9414
    SETDIJ:  cpu time      0.0075: real time      0.0075
    TRIAL :  cpu time      1.1336: real time      1.1346
    CORREC:  cpu time      2.7036: real time      2.7043
    CHARGE:  cpu time      0.4486: real time      0.4490
    --------------------------------------------
      LOOP:  cpu time      6.2495: real time      6.2670

 eigenvalue-minimisations  :     0
 total energy-change (2. order) :-0.4332363E-05  (-0.1805921E-05)
 number of electron      42.0000000 magnetization 
 augmentation part       -0.0418077 magnetization 

 Free energy of the ion-electron system (eV)
  ---------------------------------------------------
  alpha Z        PSCENC =         0.38812818
  Ewald energy   TEWEN  =      3532.69581032
  -Hartree energ DENC   =     -5073.37982897
  -exchange      EXHF   =         0.00000000
  -V(xc)+E(xc)   XCENC  =       122.71799727
  PAW double counting   =     22096.58722375   -22070.98891746
  entropy T*S    EENTRO =        -0.00000000
  eigenvalues    EBANDS =      -568.59103773
  atomic energy  EATOM  =      1875.92199046
  ---------------------------------------------------
  free energy    TOTEN  =       -84.64863418 eV

  energy without entropy =      -84.64863418  energy(sigma->0) =      -84.64863418


--------------------------------------------------------------------------------------------------------




--------------------------------------- Iteration      1(  24)  ---------------------------------------


    POTLOK:  cpu time      1.9434: real time      1.9446
    SETDIJ:  cpu time      0.0047: real time      0.0047
    TRIAL :  cpu time      1.1332: real time      1.1341
    CORREC:  cpu time      2.7036: real time      2.7052
    CHARGE:  cpu time      0.4504: real time      0.4504
    --------------------------------------------
      LOOP:  cpu time      6.2475: real time      6.2675

 eigenvalue-minimisations  :     0
 total energy-change (2. order) :-0.1821969E-05  (-0.7762928E-06)
 number of electron      42.0000000 magnetization 
 augmentation part       -0.0418023 magnetization 

 Free energy of the ion-electron system (eV)
  ---------------------------------------------------
  alpha Z        PSCENC =         0.38812818
  Ewald energy   TEWEN  =      3532.69581032
  -Hartree energ DENC   =     -5073.38251916
  -exchange      EXHF   =         0.00000000
  -V(xc)+E(xc)   XCENC  =       122.71792040
  PAW double counting   =     22095.44091741   -22069.84261169
  entropy T*S    EENTRO =        -0.00000000
  eigenvalues    EBANDS =      -568.58827193
  atomic energy  EATOM  =      1875.92199046
  ---------------------------------------------------
  free energy    TOTEN  =       -84.64863601 eV

  energy without entropy =      -84.64863601  energy(sigma->0) =      -84.64863601


--------------------------------------------------------------------------------------------------------




--------------------------------------- Iteration      1(  25)  ---------------------------------------


    POTLOK:  cpu time      1.9450: real time      1.9462
    SETDIJ:  cpu time      0.0025: real time      0.0025
    TRIAL :  cpu time      1.1338: real time      1.1343
    CORREC:  cpu time      2.7041: real time      2.7058
    CHARGE:  cpu time      0.4499: real time      0.4499
    --------------------------------------------
      LOOP:  cpu time      6.2484: real time      6.2681

 eigenvalue-minimisations  :     0
 total energy-change (2. order) :-0.7891722E-06  (-0.3292074E-06)
 number of electron      42.0000000 magnetization 
 augmentation part       -0.0418004 magnetization 

 Free energy of the ion-electron system (eV)
  ---------------------------------------------------
  alpha Z        PSCENC =         0.38812818
  Ewald energy   TEWEN  =      3532.69581032
  -Hartree energ DENC   =     -5073.38263535
  -exchange      EXHF   =         0.00000000
  -V(xc)+E(xc)   XCENC  =       122.71793646
  PAW double counting   =     22094.71486124   -22069.11657388
  entropy T*S    EENTRO =        -0.00000000
  eigenvalues    EBANDS =      -568.58815422
  atomic energy  EATOM  =      1875.92199046
  ---------------------------------------------------
  free energy    TOTEN  =       -84.64863679 eV

  energy without entropy =      -84.64863679  energy(sigma->0) =      -84.64863679


--------------------------------------------------------------------------------------------------------




--------------------------------------- Iteration      1(  26)  ---------------------------------------


    POTLOK:  cpu time      1.9442: real time      1.9454
    SETDIJ:  cpu time      0.0031: real time      0.0031
    TRIAL :  cpu time      1.1332: real time      1.1342
    CORREC:  cpu time      2.7032: real time      2.7048
    CHARGE:  cpu time      0.4494: real time      0.4500
    --------------------------------------------
      LOOP:  cpu time      6.2628: real time      6.2673

 eigenvalue-minimisations  :     0
 total energy-change (2. order) :-0.3353598E-06  (-0.1309892E-06)
 number of electron      42.0000000 magnetization 
 augmentation part       -0.0417990 magnetization 

 Free energy of the ion-electron system (eV)
  ---------------------------------------------------
  alpha Z        PSCENC =         0.38812818
  Ewald energy   TEWEN  =      3532.69581032
  -Hartree energ DENC   =     -5073.38480833
  -exchange      EXHF   =         0.00000000
  -V(xc)+E(xc)   XCENC  =       122.71798019
  PAW double counting   =     22094.38144913   -22068.78315360
  entropy T*S    EENTRO =        -0.00000000
  eigenvalues    EBANDS =      -568.58603349
  atomic energy  EATOM  =      1875.92199046
  ---------------------------------------------------
  free energy    TOTEN  =       -84.64863713 eV

  energy without entropy =      -84.64863713  energy(sigma->0) =      -84.64863713


--------------------------------------------------------------------------------------------------------




--------------------------------------- Iteration      1(  27)  ---------------------------------------


    POTLOK:  cpu time      1.9454: real time      1.9466
    SETDIJ:  cpu time      0.0028: real time      0.0028
    TRIAL :  cpu time      1.1346: real time      1.1353
    CORREC:  cpu time      2.7023: real time      2.7039
    CHARGE:  cpu time      0.4492: real time      0.4497
    --------------------------------------------
      LOOP:  cpu time      6.2488: real time      6.2678

 eigenvalue-minimisations  :     0
 total energy-change (2. order) :-0.1331573E-06  (-0.5241924E-07)
 number of electron      42.0000000 magnetization 
 augmentation part       -0.0417985 magnetization 

 Free energy of the ion-electron system (eV)
  ---------------------------------------------------
  alpha Z        PSCENC =         0.38812818
  Ewald energy   TEWEN  =      3532.69581032
  -Hartree energ DENC   =     -5073.38619566
  -exchange      EXHF   =         0.00000000
  -V(xc)+E(xc)   XCENC  =       122.71803325
  PAW double counting   =     22094.22565248   -22068.62735430
  entropy T*S    EENTRO =        -0.00000000
  eigenvalues    EBANDS =      -568.58470199
  atomic energy  EATOM  =      1875.92199046
  ---------------------------------------------------
  free energy    TOTEN  =       -84.64863726 eV

  energy without entropy =      -84.64863726  energy(sigma->0) =      -84.64863726


--------------------------------------------------------------------------------------------------------




--------------------------------------- Iteration      1(  28)  ---------------------------------------


    POTLOK:  cpu time      1.9379: real time      1.9393
    SETDIJ:  cpu time      0.0084: real time      0.0084
    TRIAL :  cpu time      1.1321: real time      1.1326
    CORREC:  cpu time      2.7024: real time      2.7045
    EDDIAG:  cpu time      0.4909: real time      0.4911
    CHARGE:  cpu time      0.4504: real time      0.4510
    --------------------------------------------
      LOOP:  cpu time      6.7346: real time      6.7556

 eigenvalue-minimisations  :     0
 total energy-change (2. order) :-0.5247057E-07  (-0.2329641E-07)
 number of electron      42.0000000 magnetization 
 augmentation part       -0.0417982 magnetization 

 Free energy of the ion-electron system (eV)
  ---------------------------------------------------
  alpha Z        PSCENC =         0.38812818
  Ewald energy   TEWEN  =      3532.69581032
  -Hartree energ DENC   =     -5073.38506334
  -exchange      EXHF   =         0.00000000
  -V(xc)+E(xc)   XCENC  =       122.71801534
  PAW double counting   =     22094.13802847   -22068.53972552
  entropy T*S    EENTRO =        -0.00000000
  eigenvalues    EBANDS =      -568.58582121
  atomic energy  EATOM  =      1875.92199046
  ---------------------------------------------------
  free energy    TOTEN  =       -84.64863732 eV

  energy without entropy =      -84.64863732  energy(sigma->0) =      -84.64863732


--------------------------------------------------------------------------------------------------------


  average scaling for gradient   0.8698


 average (electrostatic) potential at core
  the test charge radii are     0.5770  0.4325  0.5902  0.5955
  (the norm of the test charge is              1.0000)
       1 -88.8608       2 -88.5848       3 -86.6564       4 -88.0841       5 -47.9111
       6 -47.5893       7 -47.8816       8 -45.8747       9 -46.3942      10-105.2098
      11-103.1106      12-104.6268      13-118.1441



 E-fermi :  -5.5432     XC(G=0):  -0.1525     alpha+bet : -0.0667

 Fermi energy:        -5.5431588513

 k-point     1 :       0.0000    0.0000    0.0000
  band No.  band energies     occupation 
      1     -25.9372      2.00000
      2     -24.2773      2.00000
      3     -23.6510      2.00000
      4     -21.7445      2.00000
      5     -19.4658      2.00000
      6     -16.5268      2.00000
      7     -16.1302      2.00000
      8     -14.0147      2.00000
      9     -13.9605      2.00000
     10     -13.0063      2.00000
     11     -12.2209      2.00000
     12     -11.0459      2.00000
     13     -10.8947      2.00000
     14     -10.5063      2.00000
     15      -9.5903      2.00000
     16      -9.2671      2.00000
     17      -8.4482      2.00000
     18      -6.2189      2.00000
     19      -6.1496      2.00000
     20      -5.6423      2.00000
     21      -5.5943      2.00000
     22      -1.9067      0.00000
     23      -0.9448      0.00000
     24      -0.6397      0.00000
     25      -0.1865      0.00000
     26      -0.1529      0.00000
     27       0.0856      0.00000
     28       0.2217      0.00000


--------------------------------------------------------------------------------------------------------


 soft charge-density along one line, spin component           1
         0         1         2         3         4         5         6         7         8         9
 total charge-density along one line

 pseudopotential strength for first ion, spin component:           1
 12.831  21.596   0.006  -0.003   0.004   0.011  -0.005   0.008
 21.596  36.346   0.011  -0.005   0.007   0.019  -0.009   0.013
  0.006   0.011  -3.149   0.000  -0.000  -5.647   0.000  -0.001
 -0.003  -0.005   0.000  -3.149  -0.000   0.000  -5.647  -0.000
  0.004   0.007  -0.000  -0.000  -3.148  -0.001  -0.000  -5.647
  0.011   0.019  -5.647   0.000  -0.001 -10.105   0.001  -0.001
 -0.005  -0.009   0.000  -5.647  -0.000   0.001 -10.106  -0.000
  0.008   0.013  -0.001  -0.000  -5.647  -0.001  -0.000 -10.105
 total augmentation occupancy for first ion, spin component:           1
  9.231  -3.543  -0.164   0.804  -1.454   0.064  -0.375   0.681
 -3.543   1.454   0.037  -0.379   0.696  -0.021   0.180  -0.331
 -0.164   0.037   7.106  -0.221  -0.553  -2.529   0.106   0.215
  0.804  -0.379  -0.221   4.806  -2.718   0.106  -1.550   1.166
 -1.454   0.696  -0.553  -2.718   8.608   0.215   1.166  -3.174
  0.064  -0.021  -2.529   0.106   0.215   0.915  -0.045  -0.086
 -0.375   0.180   0.106  -1.550   1.166  -0.045   0.523  -0.494
  0.681  -0.331   0.215   1.166  -3.174  -0.086  -0.494   1.210


------------------------ aborting loop because EDIFF is reached ----------------------------------------


    FORLOC:  cpu time      0.1351: real time      0.1351
    FORNL :  cpu time      0.0798: real time      0.0800
    FORCOR:  cpu time      1.7596: real time      1.7607
    OFIELD:  cpu time      0.0120: real time      0.0120

 ---------------------------------------------------------------------------------------------

         DFTD3 V3.0 Rev 1        
 IVDW         = 11
 DF revpbe    
 parameters
 VDW_S6       =    1.0000
 VDW_S8       =    1.0100
 VDW_SR       =    0.9230
 rs18     =    1.0000
 alpha6   =   14.0000
 alpha8   =   16.0000
 k1-k3    =   16.0000    1.3333   -4.0000
 VDW_RADIUS   =   50.2022 A
 VDW_CNRADIUS =   21.1671 A
 Edisp (eV)   -0.33564

 E6    (eV) :    -0.2403
 E8    (eV) :    -0.0953
 % E8        : 28.41
    FORVDW:  cpu time      0.0714: real time      0.0734

 VOLUME and BASIS-vectors are now :
 -----------------------------------------------------------------------------
  energy-cutoff  :     1000.00
  volume of cell :    13750.00
      direct lattice vectors                 reciprocal lattice vectors
    25.000000000  0.000000000  0.000000000     0.040000000  0.000000000  0.000000000
     0.000000000 25.000000000  0.000000000     0.000000000  0.040000000  0.000000000
     0.000000000  0.000000000 22.000000000     0.000000000  0.000000000  0.045454545

  length of vectors
    25.000000000 25.000000000 22.000000000     0.040000000  0.040000000  0.045454545


 FORCES acting on ions:
    Electron-Ion                     Ewald-Force                    Non-Local-Force
 -----------------------------------------------------------------------------------------------
   0.442E+02 0.605E+00 -.223E+02   -.475E+02 -.460E+01 0.245E+02   0.366E+01 0.415E+01 -.246E+01
   -.897E+02 0.508E+02 0.393E+02   0.881E+02 -.448E+02 -.388E+02   0.170E+01 -.612E+01 -.631E+00
   -.187E+03 -.497E+02 0.105E+03   0.188E+03 0.504E+02 -.105E+03   -.823E+00 -.853E+00 0.619E+00
   -.988E+02 -.206E+03 0.793E+02   0.106E+03 0.205E+03 -.828E+02   -.695E+01 0.119E+01 0.353E+01
   0.544E+02 -.951E+02 -.159E+02   -.589E+02 0.101E+03 0.175E+02   0.446E+01 -.589E+01 -.157E+01
   0.880E+01 0.964E+02 -.266E+02   -.115E+02 -.103E+03 0.297E+02   0.270E+01 0.635E+01 -.311E+01
   -.928E+02 0.237E+02 0.314E+02   0.100E+03 -.236E+02 -.338E+02   -.716E+01 -.156E+00 0.246E+01
   -.770E+02 -.154E+02 0.430E+02   0.821E+02 0.159E+02 -.458E+02   -.505E+01 -.449E+00 0.277E+01
   -.286E+02 -.821E+02 0.260E+02   0.304E+02 0.877E+02 -.277E+02   -.170E+01 -.544E+01 0.163E+01
   0.874E+02 -.235E+03 -.136E+02   -.912E+02 0.233E+03 0.158E+02   0.376E+01 0.260E+01 -.221E+01
   0.918E+02 0.241E+03 -.812E+02   -.105E+03 -.272E+03 0.926E+02   0.130E+02 0.316E+02 -.114E+02
   -.148E+03 0.227E+03 0.658E+02   0.144E+03 -.229E+03 -.724E+02   0.370E+01 0.249E+01 0.660E+01
   0.377E+03 0.129E+02 -.201E+03   -.425E+03 -.154E+02 0.226E+03   0.469E+02 0.250E+01 -.253E+02
 -----------------------------------------------------------------------------------------------
   -.583E+02 -.320E+02 0.290E+02   0.114E-12 0.338E-13 0.000E+00   0.583E+02 0.320E+02 -.290E+02


 POSITION                                       TOTAL-FORCE (eV/Angst)
 -----------------------------------------------------------------------------------
     11.24786     12.78985     11.64079         0.069416      0.002778     -0.036955
     13.17995     11.81945     10.75268         0.028238     -0.024736     -0.001450
     13.71462     13.07304     10.30327         0.248589     -0.025821     -0.131668
     12.95730     14.17490     10.55414        -0.050454      0.198951     -0.000915
     11.18849     14.85318     11.39458        -0.011648      0.024178      0.003401
     13.52822      9.82130     10.92847         0.007246     -0.054009      0.013042
     14.83162     10.70316     10.18711         0.039807     -0.003965     -0.010713
     14.66445     13.14725      9.78519         0.094458      0.019022     -0.050274
     13.25509     15.17870     10.26230         0.041500      0.114480     -0.036705
     11.77133     14.04717     11.19434        -0.084594      0.195448      0.017530
     12.02305     11.69032     11.38236        -0.124851     -0.268585      0.108102
     13.87564     10.67414     10.50890         0.105092     -0.183774     -0.060963
     10.16838     12.78283     12.21481        -0.362799      0.006034      0.187568
 -----------------------------------------------------------------------------------
    total drift:                                0.000190      0.000159     -0.000138


--------------------------------------------------------------------------------------------------------



  FREE ENERGIE OF THE ION-ELECTRON SYSTEM (eV)
  ---------------------------------------------------
  free  energy   TOTEN  =       -84.98427657 eV

  energy  without entropy=      -84.98427657  energy(sigma->0) =      -84.98427657



--------------------------------------------------------------------------------------------------------


    POTLOK:  cpu time      1.9669: real time      1.9681


--------------------------------------------------------------------------------------------------------


 stress matrix after NEB project (eV)
      0.13951      0.01026     -0.07393
      0.01026      0.14322     -0.02472
     -0.07393     -0.02472      0.04181
  FORCES: max atom, RMS     0.408462    0.200682
  FORCE total and by dimension    0.723570    0.362799
  Stress total and by dimension    0.232561    0.143216
     LOOP+:  cpu time    163.9302: real time    164.3627
    4ORBIT:  cpu time      0.0000: real time      0.0000

 total amount of memory used by VASP MPI-rank0   213610. kBytes
=======================================================================

   base      :      30000. kBytes
   nonl-proj :       7162. kBytes
   fftplans  :      54279. kBytes
   grid      :     116981. kBytes
   one-center:          1. kBytes
   wavefun   :       5187. kBytes

  
  
 General timing and accounting informations for this job:
 ========================================================
  
                  Total CPU time used (sec):      189.664
                            User time (sec):      185.451
                          System time (sec):        4.214
                         Elapsed time (sec):      193.564
  
                   Maximum memory used (kb):      453712.
                   Average memory used (kb):          N/A
  
                          Minor page faults:       232110
                          Major page faults:         1181
                 Voluntary context switches:         4241
