 vasp.6.4.1 05Apr23 (build Jun  6 2023 14:46:38) gamma-only                      
 executed on        HPECrayEX_GCC date 2024.08.21  12:01:54
 running  256 mpi-ranks, with    1 threads/rank, on    2 nodes
 distrk:  each k-point on  256 cores,    1 groups
 distr:  one band on NCORE=  64 cores,    4 groups


--------------------------------------------------------------------------------------------------------


 INCAR:
   NPAR = 4
   ALGO = Conjugate
   ISMEAR = 0
   SIGMA = 0.01
   PREC = Accurate
   EDIFF = 1E-7
   ENCUT = 1000
   ISIF = 0
   GGA = ML
   LUSE_VDW = .TRUE.
   ZAB_VDW = -1.8867
   AGGAC = 0.0000
   LASPH = .TRUE.
   SYMPREC = 1E-7
   LWAVE = .FALSE.
   LCHARG = .FALSE.

 POTCAR:    PAW_PBE C_h 06Feb2004                 
 POTCAR:    PAW_PBE H_h 06Feb2004                 
 POTCAR:    PAW_PBE N_h 06Feb2004                 
 POTCAR:    PAW_PBE O_h 06Feb2004                 
 -----------------------------------------------------------------------------
|                                                                             |
|               ----> ADVICE to this user running VASP <----                  |
|                                                                             |
|     You have switched on vdW-DFT.                                           |
|     This routine was written and supplied by Jiri Klimes. We recommend      |
|     that you carefully read and cite the following publications:            |
|       J. Klimes, D.R. Bowler, A. Michelides                                 |
|          J. Phys.: Cond Matt. 22 022201 (2010)                              |
|       J. Klimes, D.R. Bowler, A. Michelides                                 |
|          Phys. Rev. B. 83, 195131 (2011)                                    |
|     and references therein.                                                 |
|                                                                             |
 -----------------------------------------------------------------------------

 POTCAR:    PAW_PBE C_h 06Feb2004                 
   VRHFIN =C: s2p2                                                                                  
   LEXCH  = PE                                                                                      
   EATOM  =   147.1560 eV,   10.8157 Ry                                                             
                                                                                                    
   TITEL  = PAW_PBE C_h 06Feb2004                                                                   
   LULTRA =        F    use ultrasoft PP ?                                                          
   IUNSCR =        1    unscreen: 0-lin 1-nonlin 2-no                                               
   RPACOR =    0.800    partial core radius                                                         
   POMASS =   12.011; ZVAL   =    4.000    mass and valenz                                          
   RCORE  =    1.100    outmost cutoff radius                                                       
   RWIGS  =    1.630; RWIGS  =    0.863    wigner-seitz radius (au A)                               
   ENMAX  =  700.000; ENMIN  =  500.000 eV                                                          
   ICORE  =        2    local potential                                                             
   LCOR   =        T    correct aug charges                                                         
   LPAW   =        T    paw PP                                                                      
   EAUG   =  946.768                                                                                
   DEXC   =    0.000                                                                                
   RMAX   =    1.128    core radius for proj-oper                                                   
   RAUG   =    1.300    factor for augmentation sphere                                              
   RDEP   =    1.162    radius for radial grids                                                     
   RDEPT  =    1.088    core radius for aug-charge                                                  
                                                                                                    
   Atomic configuration                                                                             
    4 entries                                                                                       
     n  l   j            E        occ.                                                              
     1  0  0.50      -273.3789   2.0000                                                             
     2  0  0.50       -13.7508   2.0000                                                             
     2  1  0.50        -5.2854   2.0000                                                             
     3  2  1.50        -5.4423   0.0000                                                             
   Description                                                                                      
     l       E           TYP  RCUT    TYP  RCUT                                                     
     0    -13.7508458     23  1.100                                                                 
     0     -8.2022199     23  1.100                                                                 
     1     -5.2854383     23  1.100                                                                 
     1      1.1560700     23  1.100                                                                 
     2     -5.4423304      7  1.100                                                                 
  local pseudopotential read in
  partial core-charges read in
  partial kinetic energy density read in
  atomic valenz-charges read in
  non local Contribution for L=           0  read in
    real space projection operators read in
  non local Contribution for L=           0  read in
    real space projection operators read in
  non local Contribution for L=           1  read in
    real space projection operators read in
  non local Contribution for L=           1  read in
    real space projection operators read in
    PAW grid and wavefunctions read in

   number of l-projection  operators is LMAX  =           4
   number of lm-projection operators is LMMAX =           8

 POTCAR:    PAW_PBE H_h 06Feb2004                 
   VRHFIN =H: ultrasoft test                                                                        
   LEXCH  = PE                                                                                      
   EATOM  =    12.4884 eV,    0.9179 Ry                                                             
                                                                                                    
   TITEL  = PAW_PBE H_h 06Feb2004                                                                   
   LULTRA =        F    use ultrasoft PP ?                                                          
   IUNSCR =        0    unscreen: 0-lin 1-nonlin 2-no                                               
   RPACOR =    0.000    partial core radius                                                         
   POMASS =    1.000; ZVAL   =    1.000    mass and valenz                                          
   RCORE  =    0.800    outmost cutoff radius                                                       
   RWIGS  =    0.700; RWIGS  =    0.370    wigner-seitz radius (au A)                               
   ENMAX  =  700.000; ENMIN  =  350.000 eV                                                          
   RCLOC  =    0.701    cutoff for local pot                                                        
   LCOR   =        T    correct aug charges                                                         
   LPAW   =        T    paw PP                                                                      
   EAUG   = 1000.000                                                                                
   RMAX   =    0.819    core radius for proj-oper                                                   
   RAUG   =    1.000    factor for augmentation sphere                                              
   RDEP   =    0.817    radius for radial grids                                                     
   RDEPT  =    0.817    core radius for aug-charge                                                  
                                                                                                    
   Atomic configuration                                                                             
    2 entries                                                                                       
     n  l   j            E        occ.                                                              
     1  0  0.50        -6.4927   1.0000                                                             
     2  1  0.50        -3.4015   0.0000                                                             
   Description                                                                                      
     l       E           TYP  RCUT    TYP  RCUT                                                     
     0     -6.4927493     23  0.800                                                                 
     0      6.8029130     23  0.800                                                                 
     1     -6.8029130     23  0.800                                                                 
  local pseudopotential read in
  atomic valenz-charges read in
  non local Contribution for L=           0  read in
    real space projection operators read in
  non local Contribution for L=           0  read in
    real space projection operators read in
  non local Contribution for L=           1  read in
    real space projection operators read in
    PAW grid and wavefunctions read in

   number of l-projection  operators is LMAX  =           3
   number of lm-projection operators is LMMAX =           5

 POTCAR:    PAW_PBE N_h 06Feb2004                 
   VRHFIN =N: s2p3                                                                                  
   LEXCH  = PE                                                                                      
   EATOM  =   264.5486 eV,   19.4438 Ry                                                             
                                                                                                    
   TITEL  = PAW_PBE N_h 06Feb2004                                                                   
   LULTRA =        F    use ultrasoft PP ?                                                          
   IUNSCR =        1    unscreen: 0-lin 1-nonlin 2-no                                               
   RPACOR =    0.800    partial core radius                                                         
   POMASS =   14.001; ZVAL   =    5.000    mass and valenz                                          
   RCORE  =    1.100    outmost cutoff radius                                                       
   RWIGS  =    1.480; RWIGS  =    0.783    wigner-seitz radius (au A)                               
   ENMAX  =  700.000; ENMIN  =  500.000 eV                                                          
   ICORE  =        2    local potential                                                             
   LCOR   =        T    correct aug charges                                                         
   LPAW   =        T    paw PP                                                                      
   EAUG   =  904.640                                                                                
   DEXC   =    0.000                                                                                
   RMAX   =    1.127    core radius for proj-oper                                                   
   RAUG   =    1.300    factor for augmentation sphere                                              
   RDEP   =    1.115    radius for radial grids                                                     
   RDEPT  =    1.106    core radius for aug-charge                                                  
                                                                                                    
   Atomic configuration                                                                             
    4 entries                                                                                       
     n  l   j            E        occ.                                                              
     1  0  0.50      -384.7179   2.0000                                                             
     2  0  0.50       -18.5828   2.0000                                                             
     2  1  0.50        -7.0898   3.0000                                                             
     3  2  1.50        -6.8029   0.0000                                                             
   Description                                                                                      
     l       E           TYP  RCUT    TYP  RCUT                                                     
     0    -18.5828117     23  1.100                                                                 
     0    -15.0750597     23  1.100                                                                 
     1     -7.0897851     23  1.100                                                                 
     1     -1.9663412     23  1.100                                                                 
     2     -6.8029130      7  1.100                                                                 
  local pseudopotential read in
  partial core-charges read in
  partial kinetic energy density read in
  kinetic energy density of atom read in
  atomic valenz-charges read in
  non local Contribution for L=           0  read in
    real space projection operators read in
  non local Contribution for L=           0  read in
    real space projection operators read in
  non local Contribution for L=           1  read in
    real space projection operators read in
  non local Contribution for L=           1  read in
    real space projection operators read in
    PAW grid and wavefunctions read in

   number of l-projection  operators is LMAX  =           4
   number of lm-projection operators is LMMAX =           8

 POTCAR:    PAW_PBE O_h 06Feb2004                 
   VRHFIN =O: s2p4                                                                                  
   LEXCH  = PE                                                                                      
   EATOM  =   432.3788 eV,   31.7789 Ry                                                             
                                                                                                    
   TITEL  = PAW_PBE O_h 06Feb2004                                                                   
   LULTRA =        F    use ultrasoft PP ?                                                          
   IUNSCR =        1    unscreen: 0-lin 1-nonlin 2-no                                               
   RPACOR =    0.800    partial core radius                                                         
   POMASS =   16.000; ZVAL   =    6.000    mass and valenz                                          
   RCORE  =    1.100    outmost cutoff radius                                                       
   RWIGS  =    1.400; RWIGS  =    0.741    wigner-seitz radius (au A)                               
   ENMAX  =  700.000; ENMIN  =  500.000 eV                                                          
   ICORE  =        2    local potential                                                             
   LCOR   =        T    correct aug charges                                                         
   LPAW   =        T    paw PP                                                                      
   EAUG   =  888.804                                                                                
   DEXC   =    0.000                                                                                
   RMAX   =    1.128    core radius for proj-oper                                                   
   RAUG   =    1.300    factor for augmentation sphere                                              
   RDEP   =    1.125    radius for radial grids                                                     
   RDEPT  =    1.088    core radius for aug-charge                                                  
                                                                                                    
   Atomic configuration                                                                             
    4 entries                                                                                       
     n  l   j            E        occ.                                                              
     1  0  0.50      -514.6923   2.0000                                                             
     2  0  0.50       -23.9615   2.0000                                                             
     2  1  0.50        -9.0305   4.0000                                                             
     3  2  1.50        -9.5241   0.0000                                                             
   Description                                                                                      
     l       E           TYP  RCUT    TYP  RCUT                                                     
     0    -23.9615319     23  1.100                                                                 
     0    -25.3221145     23  1.100                                                                 
     1     -9.0304911     23  1.100                                                                 
     1     -5.4802209     23  1.100                                                                 
     2     -9.5240782      7  1.100                                                                 
  local pseudopotential read in
  partial core-charges read in
  partial kinetic energy density read in
  atomic valenz-charges read in
  non local Contribution for L=           0  read in
    real space projection operators read in
  non local Contribution for L=           0  read in
    real space projection operators read in
  non local Contribution for L=           1  read in
    real space projection operators read in
  non local Contribution for L=           1  read in
    real space projection operators read in
    PAW grid and wavefunctions read in

   number of l-projection  operators is LMAX  =           4
   number of lm-projection operators is LMMAX =           8

 -----------------------------------------------------------------------------
|                                                                             |
|               ----> ADVICE to this user running VASP <----                  |
|                                                                             |
|     You enforced a specific xc type in the INCAR file but a different       |
|     type was found in the POTCAR file.                                      |
|     I HOPE YOU KNOW WHAT YOU ARE DOING!                                     |
|                                                                             |
 -----------------------------------------------------------------------------

  PAW_PBE C_h 06Feb2004                 :
 energy of atom  1       EATOM= -147.1560
 kinetic energy error for atom=    0.0031 (will be added to EATOM!!)
  PAW_PBE H_h 06Feb2004                 :
 energy of atom  2       EATOM=  -12.4884
 kinetic energy error for atom=    0.0006 (will be added to EATOM!!)
  PAW_PBE N_h 06Feb2004                 :
 energy of atom  3       EATOM= -264.5486
 kinetic energy error for atom=    0.0081 (will be added to EATOM!!)
  PAW_PBE O_h 06Feb2004                 :
 energy of atom  4       EATOM= -432.3788
 kinetic energy error for atom=    0.0171 (will be added to EATOM!!)


 POSCAR:  C  H  N  O
  positions in cartesian coordinates
  No initial velocities read in
 exchange correlation table for  LEXCH =       44
   RHO(1)=    0.500       N(1)  =     2000
   RHO(2)=  100.500       N(2)  =     4000

 VTST: version 4.1, (05/19/21)

 CHAIN: initializing optimizer
 
 OPT: Using VASP Dynamics algorithm
 CHAIN: Read ICHAIN            0

 POSCAR:  C  H  N  O
  positions in cartesian coordinates
  No initial velocities read in



--------------------------------------------------------------------------------------------------------


 ion  position               nearest neighbor table
   1  0.450  0.512  0.529-  13 1.22  11 1.37  10 1.43
   2  0.527  0.473  0.489-  11 1.32  12 1.36   3 1.44
   3  0.549  0.523  0.468-   8 1.08   4 1.36   2 1.44
   4  0.518  0.567  0.480-   9 1.09  10 1.35   3 1.36
   5  0.448  0.594  0.518-  10 1.01
   6  0.541  0.393  0.497-  12 1.01
   7  0.593  0.428  0.463-  12 1.01
   8  0.587  0.526  0.445-   3 1.08
   9  0.530  0.607  0.466-   4 1.09
  10  0.471  0.562  0.509-   5 1.01   4 1.35   1 1.43
  11  0.481  0.468  0.517-   2 1.32   1 1.37
  12  0.555  0.427  0.478-   7 1.01   6 1.01   2 1.36
  13  0.407  0.511  0.555-   1 1.22

  LATTYP: Found a simple tetragonal cell.
 ALAT       =    25.0000000000
 C/A-ratio  =     0.8800000000
  
  Lattice vectors:
  
 A1 = (  25.0000000000,   0.0000000000,   0.0000000000)
 A2 = (   0.0000000000,  25.0000000000,   0.0000000000)
 A3 = (   0.0000000000,   0.0000000000,  22.0000000000)


Analysis of symmetry for initial positions (statically):
=====================================================================
 Subroutine PRICEL returns:
 Original cell was already a primitive cell.
 

 Routine SETGRP: Setting up the symmetry group for a 
 simple tetragonal supercell.


 Subroutine GETGRP returns: Found  1 space group operations
 (whereof  1 operations were pure point group operations)
 out of a pool of 16 trial point group operations.


The static configuration has the point symmetry C_1 .


Analysis of symmetry for dynamics (positions and initial velocities):
=====================================================================
 Subroutine PRICEL returns:
 Original cell was already a primitive cell.
 

 Routine SETGRP: Setting up the symmetry group for a 
 simple tetragonal supercell.


 Subroutine GETGRP returns: Found  1 space group operations
 (whereof  1 operations were pure point group operations)
 out of a pool of 16 trial point group operations.


The dynamic configuration has the point symmetry C_1 .


 Subroutine INISYM returns: Found  1 space group operations
 (whereof  1 operations are pure point group operations),
 and found     1 'primitive' translations


----------------------------------------------------------------------------------------

                                     Primitive cell                                     

  volume of cell :   13750.0000

  direct lattice vectors                    reciprocal lattice vectors
    25.000000000  0.000000000  0.000000000     0.040000000  0.000000000  0.000000000
     0.000000000 25.000000000  0.000000000     0.000000000  0.040000000  0.000000000
     0.000000000  0.000000000 22.000000000     0.000000000  0.000000000  0.045454545

  length of vectors
    25.000000000 25.000000000 22.000000000     0.040000000  0.040000000  0.045454545

  position of ions in fractional coordinates (direct lattice)
     0.449914400  0.511594200  0.529126591
     0.527198000  0.472777800  0.488758409
     0.548584800  0.522921800  0.468330682
     0.518292000  0.566995800  0.479733864
     0.447539600  0.594127400  0.517935227
     0.541128800  0.392851800  0.496748864
     0.593264800  0.428126200  0.463050682
     0.586578000  0.525890200  0.444781136
     0.530203600  0.607148200  0.466468409
     0.470853200  0.561887000  0.508833409
     0.480922000  0.467612600  0.517379773
     0.555025600  0.426965800  0.477677045
     0.406735200  0.511313400  0.555218864

  ion indices of the primitive-cell ions
   primitive index   ion index
                 1           1
                 2           2
                 3           3
                 4           4
                 5           5
                 6           6
                 7           7
                 8           8
                 9           9
                10          10
                11          11
                12          12
                13          13

----------------------------------------------------------------------------------------



 KPOINTS: auto                                    

Automatic generation of k-mesh.
 Grid dimensions read from file:
 generate k-points for:    1    1    1

 Generating k-lattice:

  Cartesian coordinates                     Fractional coordinates (reciprocal lattice)
     0.040000000  0.000000000  0.000000000     1.000000000  0.000000000  0.000000000
     0.000000000  0.040000000  0.000000000     0.000000000  1.000000000  0.000000000
     0.000000000  0.000000000  0.045454545     0.000000000  0.000000000  1.000000000

  Length of vectors
     0.040000000  0.040000000  0.045454545

  Shift w.r.t. Gamma in fractional coordinates (k-lattice)
     0.000000000  0.000000000  0.000000000

 
 Subroutine IBZKPT returns following result:
 ===========================================
 
 Found      1 irreducible k-points:
 
 Following reciprocal coordinates:
            Coordinates               Weight
  0.000000  0.000000  0.000000      1.000000
 
 Following cartesian coordinates:
            Coordinates               Weight
  0.000000  0.000000  0.000000      1.000000
 


--------------------------------------------------------------------------------------------------------




 Dimension of arrays:
   k-points           NKPTS =      1   k-points in BZ     NKDIM =      1   number of bands    NBANDS=     28
   number of dos      NEDOS =    301   number of ions     NIONS =     13
   non local maximal  LDIM  =      4   non local SUM 2l+1 LMDIM =      8
   total plane-waves  NPLWV = ******
   max r-space proj   IRMAX =      1   max aug-charges    IRDMAX=   9478
   dimension x,y,z NGX =   270 NGY =  270 NGZ =  240
   dimension x,y,z NGXF=   540 NGYF=  540 NGZF=  480
   support grid    NGXF=   540 NGYF=  540 NGZF=  480
   ions per type =               4   5   3   1
   NGX,Y,Z   is equivalent  to a cutoff of  17.95, 17.95, 18.14 a.u.
   NGXF,Y,Z  is equivalent  to a cutoff of  35.91, 35.91, 36.27 a.u.

 SYSTEM =  unknown system                          
 POSCAR =   C  H  N  O                             

 Startparameter for this run:
   NWRITE =      2    write-flag & timer
   PREC   = accura    normal or accurate (medium, high low for compatibility)
   ISTART =      0    job   : 0-new  1-cont  2-samecut
   ICHARG =      2    charge: 1-file 2-atom 10-const
   ISPIN  =      1    spin polarized calculation?
   LNONCOLLINEAR =      F non collinear calculations
   LSORBIT =      F    spin-orbit coupling
   INIWAV =      1    electr: 0-lowe 1-rand  2-diag
   LASPH  =      T    aspherical Exc in radial PAW
 Electronic Relaxation 1
   ENCUT  = 1000.0 eV  73.50 Ry    8.57 a.u.  64.46 64.46 56.73*2*pi/ulx,y,z
   ENINI  = 1000.0     initial cutoff
   ENAUG  = 1000.0 eV  augmentation charge cutoff
   NELM   =     60;   NELMIN=  2; NELMDL= -5     # of ELM steps 
   EDIFF  = 0.1E-06   stopping-criterion for ELM
   LREAL  =      F    real-space projection
   NLSPLINE    = F    spline interpolate recip. space projectors
   LCOMPAT=      F    compatible to vasp.4.4
   GGA_COMPAT  = T    GGA compatible to vasp.4.4-vasp.4.6
   LMAXPAW     = -100 max onsite density
   LMAXMIX     =    2 max onsite mixed and CHGCAR
   VOSKOWN=      0    Vosko Wilk Nusair interpolation
   ROPT   =    0.00000   0.00000   0.00000   0.00000
 Ionic relaxation
   EDIFFG = 0.1E-05   stopping-criterion for IOM
   NSW    =      0    number of steps for IOM
   NBLOCK =      1;   KBLOCK =      1    inner block; outer block 
   IBRION =     -1    ionic relax: 0-MD 1-quasi-New 2-CG
   NFREE  =      0    steps in history (QN), initial steepest desc. (CG)
   ISIF   =      0    stress and relaxation
   IWAVPR =     10    prediction:  0-non 1-charg 2-wave 3-comb
   ISYM   =      2    0-nonsym 1-usesym 2-fastsym
   LCORR  =      T    Harris-Foulkes like correction to forces

   POTIM  = 0.5000    time-step for ionic-motion
   TEIN   =    0.0    initial temperature
   TEBEG  =    0.0;   TEEND  =   0.0 temperature during run
   SMASS  =  -3.00    Nose mass-parameter (am)
   estimated Nose-frequenzy (Omega)   =  0.10E-29 period in steps = 0.13E+47 mass=  -0.143E-25a.u.
   SCALEE = 1.0000    scale energy and forces
   NPACO  =    256;   APACO  = 10.0  distance and # of slots for P.C.
   PSTRESS=    0.0 pullay stress

  Mass of Ions in am
   POMASS =  12.01  1.00 14.00 16.00
  Ionic Valenz
   ZVAL   =   4.00  1.00  5.00  6.00
  Atomic Wigner-Seitz radii
   RWIGS  =  -1.00 -1.00 -1.00 -1.00
  virtual crystal weights 
   VCA    =   1.00  1.00  1.00  1.00
   NELECT =      42.0000    total number of electrons
   NUPDOWN=      -1.0000    fix difference up-down

 DOS related values:
   EMIN   =  10.00;   EMAX   =-10.00  energy-range for DOS
   EFERMI =   0.00;   METHOD = LEGACY      
   ISMEAR =     0;   SIGMA  =   0.01  broadening in eV -4-tet -1-fermi 0-gaus

 Electronic relaxation 2 (details)
   IALGO  =     58    algorithm
   LDIAG  =      T    sub-space diagonalisation (order eigenvalues)
   LSUBROT=      F    optimize rotation matrix (better conditioning)
   TURBO    =      0    0=normal 1=particle mesh
   IRESTART =      0    0=no restart 2=restart with 2 vectors
   NREBOOT  =      0    no. of reboots
   NMIN     =      0    reboot dimension
   EREF     =   0.00    reference energy to select bands
   IMIX   =      4    mixing-type and parameters
     AMIX     =   0.40;   BMIX     =  1.00
     AMIX_MAG =   1.60;   BMIX_MAG =  1.00
     AMIN     =   0.10
     WC   =   100.;   INIMIX=   1;  MIXPRE=   1;  MAXMIX= -45

 Intra band minimization:
   WEIMIN = 0.0000     energy-eigenvalue tresh-hold
   EBREAK =  0.89E-09  absolut break condition
   DEPER  =   0.30     relativ break condition  

   TIME   =   0.40     timestep for ELM

  volume/ion in A,a.u.               =    1057.69      7137.66
  Fermi-wavevector in a.u.,A,eV,Ry     =   0.237533  0.448872  0.767666  0.056422
  Thomas-Fermi vector in A             =   1.039240

 Write flags
   LWAVE        =      F    write WAVECAR
   LDOWNSAMPLE  =      F    k-point downsampling of WAVECAR
   LCHARG       =      F    write CHGCAR
   LVTOT        =      F    write LOCPOT, total local potential
   LVHAR        =      F    write LOCPOT, Hartree potential only
   LELF         =      F    write electronic localiz. function (ELF)
   LORBIT       =      0    0 simple, 1 ext, 2 COOP (PROOUT), +10 PAW based schemes


 Dipole corrections
   LMONO  =      F    monopole corrections only (constant potential shift)
   LDIPOL =      F    correct potential (dipole corrections)
   IDIPOL =      0    1-x, 2-y, 3-z, 4-all directions 
   EPSILON=  1.0000000 bulk dielectric constant

 Exchange correlation treatment:
   GGA     =    ML    GGA type
   LEXCH   =    44    internal setting for exchange type
   LIBXC   =     F    Libxc                    
   VOSKOWN =     0    Vosko Wilk Nusair interpolation
   LHFCALC =     F    Hartree Fock is set to
   LHFONE  =     F    Hartree Fock one center treatment
   AEXX    =    0.0000 exact exchange contribution

 vdW DFT:
   LUSE_VDW   =     T    switch on vdW DFT
   IVDW_NL    =     1    kernel type
   LSPIN_VDW  =     F    use spin-polarized vdW DFT
   Zab_VDW    =******    correlation parameter
   PARAM1     =0.1234
   PARAM2     =1.0000
   PARAM3     =0.0000
   -- rVV10 --
   BPARAM     = 6.3000
   CPARAM     = 0.0093

 Linear response parameters
   LEPSILON=     F    determine dielectric tensor
   LRPA    =     F    only Hartree local field effects (RPA)
   LNABLA  =     F    use nabla operator in PAW spheres
   LVEL    =     F    velocity operator in full k-point grid
   CSHIFT  =0.1000    complex shift for real part using Kramers Kronig
   OMEGAMAX=  -1.0    maximum frequency
   DEG_THRESHOLD= 0.2000000E-02 threshold for treating states as degnerate
   RTIME   =   -0.100 relaxation time in fs
  (WPLASMAI=    0.000 imaginary part of plasma frequency in eV, 0.658/RTIME)
   DFIELD  = 0.0000000 0.0000000 0.0000000 field for delta impulse in time

  Optional k-point grid parameters
   LKPOINTS_OPT  =     F    use optional k-point grid
   KPOINTS_OPT_MODE=     1    mode for optional k-point grid

 Orbital magnetization related:
   ORBITALMAG=     F  switch on orbital magnetization
   LCHIMAG   =     F  perturbation theory with respect to B field
   DQ        =  0.001000  dq finite difference perturbation B field
   LLRAUG    =     F  two centre corrections for induced B field
   LBONE     =     F  B-component reconstruction in AE one-centre
   LVGVCALC  =     T  calculate vGv susceptibility
   LVGVAPPL  =     F  apply vGv susceptibility instead of pGv for G=0

 Random number generation:
   RANDOM_GENERATOR = DEFAULT
   PCG_SEED         = not used


--------------------------------------------------------------------------------------------------------


 Static calculation
 charge density and potential will be updated during run
 non-spin polarized calculation
 Conjugate gradient for all bands (Freysoldt, et al. PRB 79, 241103 (2009))
 preconditioned conjugated gradient                                        
 perform sub-space diagonalisation
    before iterative eigenvector-optimisation
 modified Broyden-mixing scheme, WC =      100.0
 initial mixing is a Kerker type mixing with AMIX =  0.4000 and BMIX =      1.0000
 Hartree-type preconditioning will be used
 using additional bands            7
 reciprocal scheme for non local part
 use partial core corrections
 no Harris-corrections to forces 
 use gradient corrections 
 use of overlap-Matrix (Vanderbilt PP)
 Gauss-broadening in eV      SIGMA  =   0.01


--------------------------------------------------------------------------------------------------------


  energy-cutoff  :     1000.00
  volume of cell :    13750.00
      direct lattice vectors                 reciprocal lattice vectors
    25.000000000  0.000000000  0.000000000     0.040000000  0.000000000  0.000000000
     0.000000000 25.000000000  0.000000000     0.000000000  0.040000000  0.000000000
     0.000000000  0.000000000 22.000000000     0.000000000  0.000000000  0.045454545

  length of vectors
    25.000000000 25.000000000 22.000000000     0.040000000  0.040000000  0.045454545



 k-points in units of 2pi/SCALE and weight: auto                                    
   0.00000000  0.00000000  0.00000000       1.000

 k-points in reciprocal lattice and weights: auto                                    
   0.00000000  0.00000000  0.00000000       1.000

 position of ions in fractional coordinates (direct lattice) 
   0.44991440  0.51159420  0.52912659
   0.52719800  0.47277780  0.48875841
   0.54858480  0.52292180  0.46833068
   0.51829200  0.56699580  0.47973386
   0.44753960  0.59412740  0.51793523
   0.54112880  0.39285180  0.49674886
   0.59326480  0.42812620  0.46305068
   0.58657800  0.52589020  0.44478114
   0.53020360  0.60714820  0.46646841
   0.47085320  0.56188700  0.50883341
   0.48092200  0.46761260  0.51737977
   0.55502560  0.42696580  0.47767705
   0.40673520  0.51131340  0.55521886

 position of ions in cartesian coordinates  (Angst):
  11.24786000 12.78985500 11.64078500
  13.17995000 11.81944500 10.75268500
  13.71462000 13.07304500 10.30327500
  12.95730000 14.17489500 10.55414500
  11.18849000 14.85318500 11.39457500
  13.52822000  9.82129500 10.92847500
  14.83162000 10.70315500 10.18711500
  14.66445000 13.14725500  9.78518500
  13.25509000 15.17870500 10.26230500
  11.77133000 14.04717500 11.19433500
  12.02305000 11.69031500 11.38235500
  13.87564000 10.67414500 10.50889500
  10.16838000 12.78283500 12.21481500



--------------------------------------------------------------------------------------------------------


 use parallel FFT for orbitals z direction half grid
 k-point   1 :   0.0000 0.0000 0.0000  plane waves:  493619

 maximum and minimum number of plane-waves per node :      7730     7699

 maximum number of plane-waves:    493619
 maximum index in each direction: 
   IXMAX=   64   IYMAX=   64   IZMAX=   56
   IXMIN=  -64   IYMIN=  -64   IZMIN=    0


 parallel 3D FFT for wavefunctions:
    minimum data exchange during FFTs selected (reduces bandwidth)
 parallel 3D FFT for charge:
    minimum data exchange during FFTs selected (reduces bandwidth)


 total amount of memory used by VASP MPI-rank0   136550. kBytes
=======================================================================

   base      :      30000. kBytes
   nonl-proj :       3574. kBytes
   fftplans  :      31236. kBytes
   grid      :      69150. kBytes
   one-center:          1. kBytes
   wavefun   :       2589. kBytes

     INWAV:  cpu time      0.0002: real time      0.0004
 Broyden mixing: mesh for mixing (old mesh)
   NGX =129   NGY =129   NGZ =113
  (NGX  =540   NGY  =540   NGZ  =480)
  gives a total of ****** points

 initial charge density was supplied:
 charge density of overlapping atoms calculated
 number of electron      42.0000000 magnetization 
 keeping initial charge density in first step


--------------------------------------------------------------------------------------------------------


 Maximum index for augmentation-charges          506 (set IRDMAX)


--------------------------------------------------------------------------------------------------------


 First call to EWALD:  gamma=   0.074
 Maximum number of real-space cells 3x 3x 3
 Maximum number of reciprocal cells 3x 3x 3

    FEWALD:  cpu time      0.0048: real time      0.0049


--------------------------------------- Ionic step        1  -------------------------------------------




--------------------------------------- Iteration      1(   1)  ---------------------------------------


vdW kernel read from vdw_kernel.bindat
  0.0000  0.2424  0.5071  0.7962  1.1119  1.4567  1.8333  2.2446  2.6937  3.1842
  3.7199  4.3049  4.9438  5.6415  6.4036  7.2358  8.1446  9.1372 10.2212 11.4050
 12.6979 14.1099 15.6519 17.3360 19.1751 21.1837 23.3773 25.7729 28.3892 31.2465
 34.3669 37.7748 41.4965 45.5611 50.0000

    POTLOK:  cpu time     28.7478: real time     28.7594
    SETDIJ:  cpu time      0.0780: real time      0.0784
    TRIAL :  cpu time      0.9902: real time      0.9922
    CORREC:  cpu time      0.0015: real time      0.0015
    --------------------------------------------
      LOOP:  cpu time     29.8305: real time     29.8447

 eigenvalue-minimisations  :    72
 total energy-change (2. order) : 0.4685187E+03  (-0.1029550E+04)
 number of electron      42.0000000 magnetization 
 augmentation part       42.0000000 magnetization 

 Free energy of the ion-electron system (eV)
  ---------------------------------------------------
  alpha Z        PSCENC =         0.38812818
  Ewald energy   TEWEN  =      3532.69581032
  -Hartree energ DENC   =     -4891.80682519
  -exchange      EXHF   =         0.00000000
  -V(xc)+E(xc)   XCENC  =       107.73353188
  PAW double counting   =      1438.89153922    -1414.05723844
  entropy T*S    EENTRO =        -0.00000000
  eigenvalues    EBANDS =      -218.62796266
  atomic energy  EATOM  =      1913.30169869
  ---------------------------------------------------
  free energy    TOTEN  =       468.51868200 eV

  energy without entropy =      468.51868200  energy(sigma->0) =      468.51868200


--------------------------------------------------------------------------------------------------------




--------------------------------------- Iteration      1(   2)  ---------------------------------------


    TRIAL :  cpu time      1.3364: real time      1.3371
    CORREC:  cpu time      0.0003: real time      0.0003
    --------------------------------------------
      LOOP:  cpu time      1.3502: real time      1.3654

 eigenvalue-minimisations  :   112
 total energy-change (2. order) :-0.2266266E+03  (-0.2224681E+03)
 number of electron      42.0000000 magnetization 
 augmentation part       42.0000000 magnetization 

 Free energy of the ion-electron system (eV)
  ---------------------------------------------------
  alpha Z        PSCENC =         0.38812818
  Ewald energy   TEWEN  =      3532.69581032
  -Hartree energ DENC   =     -4891.80682519
  -exchange      EXHF   =         0.00000000
  -V(xc)+E(xc)   XCENC  =       107.73353188
  PAW double counting   =      1438.89153922    -1414.05723844
  entropy T*S    EENTRO =        -0.00007770
  eigenvalues    EBANDS =      -445.25448382
  atomic energy  EATOM  =      1913.30169869
  ---------------------------------------------------
  free energy    TOTEN  =       241.89208314 eV

  energy without entropy =      241.89216084  energy(sigma->0) =      241.89212199


--------------------------------------------------------------------------------------------------------




--------------------------------------- Iteration      1(   3)  ---------------------------------------


    TRIAL :  cpu time      1.2558: real time      1.2569
    CORREC:  cpu time      0.0001: real time      0.0001
    --------------------------------------------
      LOOP:  cpu time      1.2690: real time      1.2855

 eigenvalue-minimisations  :   104
 total energy-change (2. order) :-0.2216294E+03  (-0.2165668E+03)
 number of electron      42.0000000 magnetization 
 augmentation part       42.0000000 magnetization 

 Free energy of the ion-electron system (eV)
  ---------------------------------------------------
  alpha Z        PSCENC =         0.38812818
  Ewald energy   TEWEN  =      3532.69581032
  -Hartree energ DENC   =     -4891.80682519
  -exchange      EXHF   =         0.00000000
  -V(xc)+E(xc)   XCENC  =       107.73353188
  PAW double counting   =      1438.89153922    -1414.05723844
  entropy T*S    EENTRO =        -0.00000000
  eigenvalues    EBANDS =      -666.88397282
  atomic energy  EATOM  =      1913.30169869
  ---------------------------------------------------
  free energy    TOTEN  =        20.26267185 eV

  energy without entropy =       20.26267185  energy(sigma->0) =       20.26267185


--------------------------------------------------------------------------------------------------------




--------------------------------------- Iteration      1(   4)  ---------------------------------------


    TRIAL :  cpu time      0.8759: real time      0.8767
    CORREC:  cpu time      0.0001: real time      0.0001
    --------------------------------------------
      LOOP:  cpu time      0.9041: real time      0.9051

 eigenvalue-minimisations  :    64
 total energy-change (2. order) :-0.8066242E+02  (-0.7813670E+02)
 number of electron      42.0000000 magnetization 
 augmentation part       42.0000000 magnetization 

 Free energy of the ion-electron system (eV)
  ---------------------------------------------------
  alpha Z        PSCENC =         0.38812818
  Ewald energy   TEWEN  =      3532.69581032
  -Hartree energ DENC   =     -4891.80682519
  -exchange      EXHF   =         0.00000000
  -V(xc)+E(xc)   XCENC  =       107.73353188
  PAW double counting   =      1438.89153922    -1414.05723844
  entropy T*S    EENTRO =        -0.00000000
  eigenvalues    EBANDS =      -747.54639051
  atomic energy  EATOM  =      1913.30169869
  ---------------------------------------------------
  free energy    TOTEN  =       -60.39974585 eV

  energy without entropy =      -60.39974585  energy(sigma->0) =      -60.39974585


--------------------------------------------------------------------------------------------------------




--------------------------------------- Iteration      1(   5)  ---------------------------------------


    TRIAL :  cpu time      0.9522: real time      0.9529
    CORREC:  cpu time      0.0001: real time      0.0001
    CHARGE:  cpu time      0.2086: real time      0.2100
    --------------------------------------------
      LOOP:  cpu time      1.1781: real time      1.1920

 eigenvalue-minimisations  :    72
 total energy-change (2. order) :-0.2031595E+02  (-0.2026868E+02)
 number of electron      42.0000000 magnetization 
 augmentation part        0.0419632 magnetization 

 Free energy of the ion-electron system (eV)
  ---------------------------------------------------
  alpha Z        PSCENC =         0.38812818
  Ewald energy   TEWEN  =      3532.69581032
  -Hartree energ DENC   =     -4891.80682519
  -exchange      EXHF   =         0.00000000
  -V(xc)+E(xc)   XCENC  =       107.73353188
  PAW double counting   =      1438.89153922    -1414.05723844
  entropy T*S    EENTRO =        -0.00000000
  eigenvalues    EBANDS =      -767.86233748
  atomic energy  EATOM  =      1913.30169869
  ---------------------------------------------------
  free energy    TOTEN  =       -80.71569282 eV

  energy without entropy =      -80.71569282  energy(sigma->0) =      -80.71569282


--------------------------------------------------------------------------------------------------------




--------------------------------------- Iteration      1(   6)  ---------------------------------------


    POTLOK:  cpu time     28.3287: real time     28.3373
    SETDIJ:  cpu time      0.0697: real time      0.0698
    TRIAL :  cpu time      0.5613: real time      0.5636
    CORREC:  cpu time     28.7131: real time     28.7227
    CHARGE:  cpu time      0.1960: real time      0.1964
    --------------------------------------------
      LOOP:  cpu time     57.8817: real time     57.9189

 eigenvalue-minimisations  :     0
 total energy-change (2. order) : 0.1768629E+02  (-0.7924331E+01)
 number of electron      42.0000000 magnetization 
 augmentation part        0.0038747 magnetization 

 Free energy of the ion-electron system (eV)
  ---------------------------------------------------
  alpha Z        PSCENC =         0.38812818
  Ewald energy   TEWEN  =      3532.69581032
  -Hartree energ DENC   =     -5226.58614475
  -exchange      EXHF   =         0.00000000
  -V(xc)+E(xc)   XCENC  =       122.51224065
  PAW double counting   =     11406.33580949   -11385.59018438
  entropy T*S    EENTRO =        -0.00000000
  eigenvalues    EBANDS =      -426.08676253
  atomic energy  EATOM  =      1913.30169869
  ---------------------------------------------------
  free energy    TOTEN  =       -63.02940433 eV

  energy without entropy =      -63.02940433  energy(sigma->0) =      -63.02940433


--------------------------------------------------------------------------------------------------------




--------------------------------------- Iteration      1(   7)  ---------------------------------------


    POTLOK:  cpu time     28.3886: real time     28.3973
    SETDIJ:  cpu time      0.0699: real time      0.0699
    TRIAL :  cpu time      0.5495: real time      0.5499
    CORREC:  cpu time     28.6872: real time     28.6954
    CHARGE:  cpu time      0.1961: real time      0.1965
    --------------------------------------------
      LOOP:  cpu time     57.9213: real time     57.9392

 eigenvalue-minimisations  :     0
 total energy-change (2. order) :-0.8021480E+01  (-0.1515854E+01)
 number of electron      42.0000000 magnetization 
 augmentation part       -0.0230284 magnetization 

 Free energy of the ion-electron system (eV)
  ---------------------------------------------------
  alpha Z        PSCENC =         0.38812818
  Ewald energy   TEWEN  =      3532.69581032
  -Hartree energ DENC   =     -5062.33311178
  -exchange      EXHF   =         0.00000000
  -V(xc)+E(xc)   XCENC  =       115.51730588
  PAW double counting   =     14657.87728186   -14635.48582897
  entropy T*S    EENTRO =        -0.00000000
  eigenvalues    EBANDS =      -593.01216854
  atomic energy  EATOM  =      1913.30169869
  ---------------------------------------------------
  free energy    TOTEN  =       -71.05088436 eV

  energy without entropy =      -71.05088436  energy(sigma->0) =      -71.05088436


--------------------------------------------------------------------------------------------------------




--------------------------------------- Iteration      1(   8)  ---------------------------------------


    POTLOK:  cpu time     28.3053: real time     28.3142
    SETDIJ:  cpu time      0.0700: real time      0.0700
    TRIAL :  cpu time      0.5500: real time      0.5505
    CORREC:  cpu time     28.6952: real time     28.7043
    CHARGE:  cpu time      0.1951: real time      0.1951
    --------------------------------------------
      LOOP:  cpu time     57.8291: real time     57.8643

 eigenvalue-minimisations  :     0
 total energy-change (2. order) :-0.1524067E+01  (-0.6158945E+00)
 number of electron      42.0000000 magnetization 
 augmentation part       -0.0197347 magnetization 

 Free energy of the ion-electron system (eV)
  ---------------------------------------------------
  alpha Z        PSCENC =         0.38812818
  Ewald energy   TEWEN  =      3532.69581032
  -Hartree energ DENC   =     -5072.28314197
  -exchange      EXHF   =         0.00000000
  -V(xc)+E(xc)   XCENC  =       115.80120024
  PAW double counting   =     15660.79619855   -15638.20315927
  entropy T*S    EENTRO =        -0.00000000
  eigenvalues    EBANDS =      -585.07168652
  atomic energy  EATOM  =      1913.30169869
  ---------------------------------------------------
  free energy    TOTEN  =       -72.57495177 eV

  energy without entropy =      -72.57495177  energy(sigma->0) =      -72.57495177


--------------------------------------------------------------------------------------------------------




--------------------------------------- Iteration      1(   9)  ---------------------------------------


    POTLOK:  cpu time     28.3265: real time     28.3361
    SETDIJ:  cpu time      0.0702: real time      0.0702
    TRIAL :  cpu time      0.5518: real time      0.5518
    CORREC:  cpu time     28.7101: real time     28.7196
    CHARGE:  cpu time      0.1946: real time      0.1946
    --------------------------------------------
      LOOP:  cpu time     57.8676: real time     57.9032

 eigenvalue-minimisations  :     0
 total energy-change (2. order) :-0.6166411E+00  (-0.2580825E+00)
 number of electron      42.0000000 magnetization 
 augmentation part       -0.0151708 magnetization 

 Free energy of the ion-electron system (eV)
  ---------------------------------------------------
  alpha Z        PSCENC =         0.38812818
  Ewald energy   TEWEN  =      3532.69581032
  -Hartree energ DENC   =     -5082.33701611
  -exchange      EXHF   =         0.00000000
  -V(xc)+E(xc)   XCENC  =       116.11754869
  PAW double counting   =     16177.98973069   -16155.43003884
  entropy T*S    EENTRO =        -0.00000000
  eigenvalues    EBANDS =      -575.91745450
  atomic energy  EATOM  =      1913.30169869
  ---------------------------------------------------
  free energy    TOTEN  =       -73.19159287 eV

  energy without entropy =      -73.19159287  energy(sigma->0) =      -73.19159287


--------------------------------------------------------------------------------------------------------




--------------------------------------- Iteration      1(  10)  ---------------------------------------


    POTLOK:  cpu time     28.3634: real time     28.3727
    SETDIJ:  cpu time      0.0703: real time      0.0703
    TRIAL :  cpu time      0.5500: real time      0.5500
    CORREC:  cpu time     28.7255: real time     28.7358
    CHARGE:  cpu time      0.1972: real time      0.1972
    --------------------------------------------
      LOOP:  cpu time     57.9199: real time     57.9566

 eigenvalue-minimisations  :     0
 total energy-change (2. order) :-0.2573103E+00  (-0.9014751E-01)
 number of electron      42.0000000 magnetization 
 augmentation part       -0.0128188 magnetization 

 Free energy of the ion-electron system (eV)
  ---------------------------------------------------
  alpha Z        PSCENC =         0.38812818
  Ewald energy   TEWEN  =      3532.69581032
  -Hartree energ DENC   =     -5076.74213923
  -exchange      EXHF   =         0.00000000
  -V(xc)+E(xc)   XCENC  =       116.01501182
  PAW double counting   =     16085.15323945   -16062.61431999
  entropy T*S    EENTRO =        -0.00000000
  eigenvalues    EBANDS =      -581.64633241
  atomic energy  EATOM  =      1913.30169869
  ---------------------------------------------------
  free energy    TOTEN  =       -73.44890317 eV

  energy without entropy =      -73.44890317  energy(sigma->0) =      -73.44890317


--------------------------------------------------------------------------------------------------------




--------------------------------------- Iteration      1(  11)  ---------------------------------------


    POTLOK:  cpu time     28.3633: real time     28.3721
    SETDIJ:  cpu time      0.0701: real time      0.0701
    TRIAL :  cpu time      0.5514: real time      0.5515
    CORREC:  cpu time     28.8104: real time     28.8180
    CHARGE:  cpu time      0.1973: real time      0.1973
    --------------------------------------------
      LOOP:  cpu time     58.0075: real time     58.0400

 eigenvalue-minimisations  :     0
 total energy-change (2. order) :-0.8992981E-01  (-0.3861869E-01)
 number of electron      42.0000000 magnetization 
 augmentation part       -0.0118299 magnetization 

 Free energy of the ion-electron system (eV)
  ---------------------------------------------------
  alpha Z        PSCENC =         0.38812818
  Ewald energy   TEWEN  =      3532.69581032
  -Hartree energ DENC   =     -5073.39745043
  -exchange      EXHF   =         0.00000000
  -V(xc)+E(xc)   XCENC  =       115.95255205
  PAW double counting   =     15828.39065794   -15805.87842809
  entropy T*S    EENTRO =        -0.00000000
  eigenvalues    EBANDS =      -584.99180164
  atomic energy  EATOM  =      1913.30169869
  ---------------------------------------------------
  free energy    TOTEN  =       -73.53883298 eV

  energy without entropy =      -73.53883298  energy(sigma->0) =      -73.53883298


--------------------------------------------------------------------------------------------------------




--------------------------------------- Iteration      1(  12)  ---------------------------------------


    POTLOK:  cpu time     28.4044: real time     28.4127
    SETDIJ:  cpu time      0.0698: real time      0.0698
    TRIAL :  cpu time      0.5506: real time      0.5506
    CORREC:  cpu time     28.7486: real time     28.7577
    CHARGE:  cpu time      0.1956: real time      0.1956
    --------------------------------------------
      LOOP:  cpu time     57.9843: real time     58.0179

 eigenvalue-minimisations  :     0
 total energy-change (2. order) :-0.3856307E-01  (-0.1807364E-01)
 number of electron      42.0000000 magnetization 
 augmentation part       -0.0120975 magnetization 

 Free energy of the ion-electron system (eV)
  ---------------------------------------------------
  alpha Z        PSCENC =         0.38812818
  Ewald energy   TEWEN  =      3532.69581032
  -Hartree energ DENC   =     -5073.22815315
  -exchange      EXHF   =         0.00000000
  -V(xc)+E(xc)   XCENC  =       115.91334618
  PAW double counting   =     15681.46272828   -15658.96618060
  entropy T*S    EENTRO =        -0.00000000
  eigenvalues    EBANDS =      -585.14477395
  atomic energy  EATOM  =      1913.30169869
  ---------------------------------------------------
  free energy    TOTEN  =       -73.57739605 eV

  energy without entropy =      -73.57739605  energy(sigma->0) =      -73.57739605


--------------------------------------------------------------------------------------------------------




--------------------------------------- Iteration      1(  13)  ---------------------------------------


    POTLOK:  cpu time     28.3675: real time     28.3768
    SETDIJ:  cpu time      0.0701: real time      0.0701
    TRIAL :  cpu time      0.5502: real time      0.5502
    CORREC:  cpu time     28.7222: real time     28.7310
    CHARGE:  cpu time      0.1974: real time      0.1975
    --------------------------------------------
      LOOP:  cpu time     57.9202: real time     57.9556

 eigenvalue-minimisations  :     0
 total energy-change (2. order) :-0.1806905E-01  (-0.9412219E-02)
 number of electron      42.0000000 magnetization 
 augmentation part       -0.0126666 magnetization 

 Free energy of the ion-electron system (eV)
  ---------------------------------------------------
  alpha Z        PSCENC =         0.38812818
  Ewald energy   TEWEN  =      3532.69581032
  -Hartree energ DENC   =     -5072.94205291
  -exchange      EXHF   =         0.00000000
  -V(xc)+E(xc)   XCENC  =       115.88192565
  PAW double counting   =     15647.64553774   -15625.14881461
  entropy T*S    EENTRO =        -0.00000000
  eigenvalues    EBANDS =      -585.41769816
  atomic energy  EATOM  =      1913.30169869
  ---------------------------------------------------
  free energy    TOTEN  =       -73.59546510 eV

  energy without entropy =      -73.59546510  energy(sigma->0) =      -73.59546510


--------------------------------------------------------------------------------------------------------




--------------------------------------- Iteration      1(  14)  ---------------------------------------


    POTLOK:  cpu time     28.3446: real time     28.3534
    SETDIJ:  cpu time      0.0697: real time      0.0697
    TRIAL :  cpu time      0.5499: real time      0.5500
    CORREC:  cpu time     28.6630: real time     28.6732
    CHARGE:  cpu time      0.1951: real time      0.1951
    --------------------------------------------
      LOOP:  cpu time     57.8390: real time     57.8722

 eigenvalue-minimisations  :     0
 total energy-change (2. order) :-0.9412439E-02  (-0.5133897E-02)
 number of electron      42.0000000 magnetization 
 augmentation part       -0.0126864 magnetization 

 Free energy of the ion-electron system (eV)
  ---------------------------------------------------
  alpha Z        PSCENC =         0.38812818
  Ewald energy   TEWEN  =      3532.69581032
  -Hartree energ DENC   =     -5072.52948794
  -exchange      EXHF   =         0.00000000
  -V(xc)+E(xc)   XCENC  =       115.86795911
  PAW double counting   =     15634.69975206   -15612.19804177
  entropy T*S    EENTRO =        -0.00000000
  eigenvalues    EBANDS =      -585.83069620
  atomic energy  EATOM  =      1913.30169869
  ---------------------------------------------------
  free energy    TOTEN  =       -73.60487754 eV

  energy without entropy =      -73.60487754  energy(sigma->0) =      -73.60487754


--------------------------------------------------------------------------------------------------------




--------------------------------------- Iteration      1(  15)  ---------------------------------------


    POTLOK:  cpu time     28.3124: real time     28.3218
    SETDIJ:  cpu time      0.0701: real time      0.0701
    TRIAL :  cpu time      0.5509: real time      0.5510
    CORREC:  cpu time     28.7117: real time     28.7225
    CHARGE:  cpu time      0.1943: real time      0.1947
    --------------------------------------------
      LOOP:  cpu time     57.8719: real time     57.8926

 eigenvalue-minimisations  :     0
 total energy-change (2. order) :-0.5129600E-02  (-0.2437505E-02)
 number of electron      42.0000000 magnetization 
 augmentation part       -0.0123704 magnetization 

 Free energy of the ion-electron system (eV)
  ---------------------------------------------------
  alpha Z        PSCENC =         0.38812818
  Ewald energy   TEWEN  =      3532.69581032
  -Hartree energ DENC   =     -5073.29044986
  -exchange      EXHF   =         0.00000000
  -V(xc)+E(xc)   XCENC  =       115.88832923
  PAW double counting   =     15607.54884168   -15585.04845432
  entropy T*S    EENTRO =        -0.00000000
  eigenvalues    EBANDS =      -585.09391106
  atomic energy  EATOM  =      1913.30169869
  ---------------------------------------------------
  free energy    TOTEN  =       -73.61000714 eV

  energy without entropy =      -73.61000714  energy(sigma->0) =      -73.61000714


--------------------------------------------------------------------------------------------------------




--------------------------------------- Iteration      1(  16)  ---------------------------------------


    POTLOK:  cpu time     28.2470: real time     28.2558
    SETDIJ:  cpu time      0.0719: real time      0.0724
    TRIAL :  cpu time      0.5631: real time      0.5649
    CORREC:  cpu time     28.5716: real time     28.5796
    CHARGE:  cpu time      0.1962: real time      0.1962
    --------------------------------------------
      LOOP:  cpu time     57.6731: real time     57.7096

 eigenvalue-minimisations  :     0
 total energy-change (2. order) :-0.2439308E-02  (-0.8153641E-03)
 number of electron      42.0000000 magnetization 
 augmentation part       -0.0121857 magnetization 

 Free energy of the ion-electron system (eV)
  ---------------------------------------------------
  alpha Z        PSCENC =         0.38812818
  Ewald energy   TEWEN  =      3532.69581032
  -Hartree energ DENC   =     -5073.59682449
  -exchange      EXHF   =         0.00000000
  -V(xc)+E(xc)   XCENC  =       115.89454608
  PAW double counting   =     15589.42003833   -15566.92006068
  entropy T*S    EENTRO =        -0.00000000
  eigenvalues    EBANDS =      -584.79578288
  atomic energy  EATOM  =      1913.30169869
  ---------------------------------------------------
  free energy    TOTEN  =       -73.61244645 eV

  energy without entropy =      -73.61244645  energy(sigma->0) =      -73.61244645


--------------------------------------------------------------------------------------------------------




--------------------------------------- Iteration      1(  17)  ---------------------------------------


    POTLOK:  cpu time     28.2367: real time     28.2449
    SETDIJ:  cpu time      0.0701: real time      0.0701
    TRIAL :  cpu time      0.5494: real time      0.5505
    CORREC:  cpu time     28.5937: real time     28.6024
    CHARGE:  cpu time      0.1972: real time      0.1972
    --------------------------------------------
      LOOP:  cpu time     57.6775: real time     57.6956

 eigenvalue-minimisations  :     0
 total energy-change (2. order) :-0.8166444E-03  (-0.2563366E-03)
 number of electron      42.0000000 magnetization 
 augmentation part       -0.0120749 magnetization 

 Free energy of the ion-electron system (eV)
  ---------------------------------------------------
  alpha Z        PSCENC =         0.38812818
  Ewald energy   TEWEN  =      3532.69581032
  -Hartree energ DENC   =     -5073.62212213
  -exchange      EXHF   =         0.00000000
  -V(xc)+E(xc)   XCENC  =       115.89617128
  PAW double counting   =     15584.47802039   -15561.97759510
  entropy T*S    EENTRO =        -0.00000000
  eigenvalues    EBANDS =      -584.77337473
  atomic energy  EATOM  =      1913.30169869
  ---------------------------------------------------
  free energy    TOTEN  =       -73.61326309 eV

  energy without entropy =      -73.61326309  energy(sigma->0) =      -73.61326309


--------------------------------------------------------------------------------------------------------




--------------------------------------- Iteration      1(  18)  ---------------------------------------


    POTLOK:  cpu time     28.1754: real time     28.1837
    SETDIJ:  cpu time      0.0700: real time      0.0700
    TRIAL :  cpu time      0.5504: real time      0.5504
    CORREC:  cpu time     28.6357: real time     28.6449
    CHARGE:  cpu time      0.1964: real time      0.1964
    --------------------------------------------
      LOOP:  cpu time     57.6583: real time     57.6763

 eigenvalue-minimisations  :     0
 total energy-change (2. order) :-0.2567694E-03  (-0.1001592E-03)
 number of electron      42.0000000 magnetization 
 augmentation part       -0.0120980 magnetization 

 Free energy of the ion-electron system (eV)
  ---------------------------------------------------
  alpha Z        PSCENC =         0.38812818
  Ewald energy   TEWEN  =      3532.69581032
  -Hartree energ DENC   =     -5073.79913307
  -exchange      EXHF   =         0.00000000
  -V(xc)+E(xc)   XCENC  =       115.90394193
  PAW double counting   =     15588.90776744   -15566.40825193
  entropy T*S    EENTRO =        -0.00000000
  eigenvalues    EBANDS =      -584.60348142
  atomic energy  EATOM  =      1913.30169869
  ---------------------------------------------------
  free energy    TOTEN  =       -73.61351986 eV

  energy without entropy =      -73.61351986  energy(sigma->0) =      -73.61351986


--------------------------------------------------------------------------------------------------------




--------------------------------------- Iteration      1(  19)  ---------------------------------------


    POTLOK:  cpu time     28.1282: real time     28.1369
    SETDIJ:  cpu time      0.0698: real time      0.0698
    TRIAL :  cpu time      0.5503: real time      0.5510
    CORREC:  cpu time     28.5375: real time     28.5471
    CHARGE:  cpu time      0.1957: real time      0.1957
    --------------------------------------------
      LOOP:  cpu time     57.4955: real time     57.5318

 eigenvalue-minimisations  :     0
 total energy-change (2. order) :-0.1003259E-03  (-0.4270086E-04)
 number of electron      42.0000000 magnetization 
 augmentation part       -0.0120974 magnetization 

 Free energy of the ion-electron system (eV)
  ---------------------------------------------------
  alpha Z        PSCENC =         0.38812818
  Ewald energy   TEWEN  =      3532.69581032
  -Hartree energ DENC   =     -5073.70033851
  -exchange      EXHF   =         0.00000000
  -V(xc)+E(xc)   XCENC  =       115.90155840
  PAW double counting   =     15600.55412848   -15578.05359879
  entropy T*S    EENTRO =        -0.00000000
  eigenvalues    EBANDS =      -584.70100695
  atomic energy  EATOM  =      1913.30169869
  ---------------------------------------------------
  free energy    TOTEN  =       -73.61362019 eV

  energy without entropy =      -73.61362019  energy(sigma->0) =      -73.61362019


--------------------------------------------------------------------------------------------------------




--------------------------------------- Iteration      1(  20)  ---------------------------------------


    POTLOK:  cpu time     28.2154: real time     28.2251
    SETDIJ:  cpu time      0.0699: real time      0.0699
    TRIAL :  cpu time      0.5485: real time      0.5490
    CORREC:  cpu time     28.6102: real time     28.6190
    CHARGE:  cpu time      0.1961: real time      0.1961
    --------------------------------------------
      LOOP:  cpu time     57.6571: real time     57.6900

 eigenvalue-minimisations  :     0
 total energy-change (2. order) :-0.4261054E-04  (-0.1729412E-04)
 number of electron      42.0000000 magnetization 
 augmentation part       -0.0121248 magnetization 

 Free energy of the ion-electron system (eV)
  ---------------------------------------------------
  alpha Z        PSCENC =         0.38812818
  Ewald energy   TEWEN  =      3532.69581032
  -Hartree energ DENC   =     -5073.71659239
  -exchange      EXHF   =         0.00000000
  -V(xc)+E(xc)   XCENC  =       115.90315174
  PAW double counting   =     15610.10272025   -15587.60220501
  entropy T*S    EENTRO =        -0.00000000
  eigenvalues    EBANDS =      -584.68637458
  atomic energy  EATOM  =      1913.30169869
  ---------------------------------------------------
  free energy    TOTEN  =       -73.61366280 eV

  energy without entropy =      -73.61366280  energy(sigma->0) =      -73.61366280


--------------------------------------------------------------------------------------------------------




--------------------------------------- Iteration      1(  21)  ---------------------------------------


    POTLOK:  cpu time     28.1861: real time     28.1959
    SETDIJ:  cpu time      0.0698: real time      0.0698
    TRIAL :  cpu time      0.5503: real time      0.5503
    CORREC:  cpu time     28.6365: real time     28.6454
    CHARGE:  cpu time      0.1969: real time      0.1969
    --------------------------------------------
      LOOP:  cpu time     57.6574: real time     57.6888

 eigenvalue-minimisations  :     0
 total energy-change (2. order) :-0.1719845E-04  (-0.6603199E-05)
 number of electron      42.0000000 magnetization 
 augmentation part       -0.0121323 magnetization 

 Free energy of the ion-electron system (eV)
  ---------------------------------------------------
  alpha Z        PSCENC =         0.38812818
  Ewald energy   TEWEN  =      3532.69581032
  -Hartree energ DENC   =     -5073.70450361
  -exchange      EXHF   =         0.00000000
  -V(xc)+E(xc)   XCENC  =       115.90276626
  PAW double counting   =     15615.06629276   -15592.56558375
  entropy T*S    EENTRO =        -0.00000000
  eigenvalues    EBANDS =      -584.69828884
  atomic energy  EATOM  =      1913.30169869
  ---------------------------------------------------
  free energy    TOTEN  =       -73.61367999 eV

  energy without entropy =      -73.61367999  energy(sigma->0) =      -73.61367999


--------------------------------------------------------------------------------------------------------




--------------------------------------- Iteration      1(  22)  ---------------------------------------


    POTLOK:  cpu time     28.1035: real time     28.1114
    SETDIJ:  cpu time      0.0727: real time      0.0727
    TRIAL :  cpu time      0.5827: real time      0.5830
    CORREC:  cpu time     28.5521: real time     28.5607
    CHARGE:  cpu time      0.1974: real time      0.1977
    --------------------------------------------
      LOOP:  cpu time     57.5221: real time     57.5553

 eigenvalue-minimisations  :     0
 total energy-change (2. order) :-0.6591605E-05  (-0.2528430E-05)
 number of electron      42.0000000 magnetization 
 augmentation part       -0.0121412 magnetization 

 Free energy of the ion-electron system (eV)
  ---------------------------------------------------
  alpha Z        PSCENC =         0.38812818
  Ewald energy   TEWEN  =      3532.69581032
  -Hartree energ DENC   =     -5073.68728090
  -exchange      EXHF   =         0.00000000
  -V(xc)+E(xc)   XCENC  =       115.90240482
  PAW double counting   =     15616.39196217   -15593.89130126
  entropy T*S    EENTRO =        -0.00000000
  eigenvalues    EBANDS =      -584.71510861
  atomic energy  EATOM  =      1913.30169869
  ---------------------------------------------------
  free energy    TOTEN  =       -73.61368659 eV

  energy without entropy =      -73.61368659  energy(sigma->0) =      -73.61368659


--------------------------------------------------------------------------------------------------------




--------------------------------------- Iteration      1(  23)  ---------------------------------------


    POTLOK:  cpu time     28.1583: real time     28.1664
    SETDIJ:  cpu time      0.0701: real time      0.0701
    TRIAL :  cpu time      0.5512: real time      0.5513
    CORREC:  cpu time     28.5577: real time     28.5673
    CHARGE:  cpu time      0.1945: real time      0.1945
    --------------------------------------------
      LOOP:  cpu time     57.5628: real time     57.5806

 eigenvalue-minimisations  :     0
 total energy-change (2. order) :-0.2519917E-05  (-0.8960751E-06)
 number of electron      42.0000000 magnetization 
 augmentation part       -0.0121352 magnetization 

 Free energy of the ion-electron system (eV)
  ---------------------------------------------------
  alpha Z        PSCENC =         0.38812818
  Ewald energy   TEWEN  =      3532.69581032
  -Hartree energ DENC   =     -5073.68326540
  -exchange      EXHF   =         0.00000000
  -V(xc)+E(xc)   XCENC  =       115.90202205
  PAW double counting   =     15615.71261769   -15593.21196930
  entropy T*S    EENTRO =        -0.00000000
  eigenvalues    EBANDS =      -584.71873133
  atomic energy  EATOM  =      1913.30169869
  ---------------------------------------------------
  free energy    TOTEN  =       -73.61368911 eV

  energy without entropy =      -73.61368911  energy(sigma->0) =      -73.61368911


--------------------------------------------------------------------------------------------------------




--------------------------------------- Iteration      1(  24)  ---------------------------------------


    POTLOK:  cpu time     28.2064: real time     28.2155
    SETDIJ:  cpu time      0.0698: real time      0.0700
    TRIAL :  cpu time      0.5502: real time      0.5502
    CORREC:  cpu time     28.5411: real time     28.5506
    CHARGE:  cpu time      0.1968: real time      0.1969
    --------------------------------------------
      LOOP:  cpu time     57.5817: real time     57.6137

 eigenvalue-minimisations  :     0
 total energy-change (2. order) :-0.9022879E-06  (-0.3588638E-06)
 number of electron      42.0000000 magnetization 
 augmentation part       -0.0121370 magnetization 

 Free energy of the ion-electron system (eV)
  ---------------------------------------------------
  alpha Z        PSCENC =         0.38812818
  Ewald energy   TEWEN  =      3532.69581032
  -Hartree energ DENC   =     -5073.69262321
  -exchange      EXHF   =         0.00000000
  -V(xc)+E(xc)   XCENC  =       115.90230337
  PAW double counting   =     15614.69170898   -15592.19120475
  entropy T*S    EENTRO =        -0.00000000
  eigenvalues    EBANDS =      -584.70951159
  atomic energy  EATOM  =      1913.30169869
  ---------------------------------------------------
  free energy    TOTEN  =       -73.61369001 eV

  energy without entropy =      -73.61369001  energy(sigma->0) =      -73.61369001


--------------------------------------------------------------------------------------------------------




--------------------------------------- Iteration      1(  25)  ---------------------------------------


    POTLOK:  cpu time     28.1902: real time     28.1996
    SETDIJ:  cpu time      0.0700: real time      0.0700
    TRIAL :  cpu time      0.5503: real time      0.5507
    CORREC:  cpu time     28.5955: real time     28.6044
    CHARGE:  cpu time      0.1954: real time      0.1954
    --------------------------------------------
      LOOP:  cpu time     57.6165: real time     57.6508

 eigenvalue-minimisations  :     0
 total energy-change (2. order) :-0.3626883E-06  (-0.1520558E-06)
 number of electron      42.0000000 magnetization 
 augmentation part       -0.0121330 magnetization 

 Free energy of the ion-electron system (eV)
  ---------------------------------------------------
  alpha Z        PSCENC =         0.38812818
  Ewald energy   TEWEN  =      3532.69581032
  -Hartree energ DENC   =     -5073.68510150
  -exchange      EXHF   =         0.00000000
  -V(xc)+E(xc)   XCENC  =       115.90197135
  PAW double counting   =     15614.00916995   -15591.50862878
  entropy T*S    EENTRO =        -0.00000000
  eigenvalues    EBANDS =      -584.71673857
  atomic energy  EATOM  =      1913.30169869
  ---------------------------------------------------
  free energy    TOTEN  =       -73.61369037 eV

  energy without entropy =      -73.61369037  energy(sigma->0) =      -73.61369037


--------------------------------------------------------------------------------------------------------




--------------------------------------- Iteration      1(  26)  ---------------------------------------


    POTLOK:  cpu time     28.2064: real time     28.2154
    SETDIJ:  cpu time      0.0701: real time      0.0701
    TRIAL :  cpu time      0.5512: real time      0.5513
    CORREC:  cpu time     28.6220: real time     28.6311
    CHARGE:  cpu time      0.1953: real time      0.1953
    --------------------------------------------
      LOOP:  cpu time     57.6768: real time     57.6954

 eigenvalue-minimisations  :     0
 total energy-change (2. order) :-0.1553435E-06  (-0.6406289E-07)
 number of electron      42.0000000 magnetization 
 augmentation part       -0.0121320 magnetization 

 Free energy of the ion-electron system (eV)
  ---------------------------------------------------
  alpha Z        PSCENC =         0.38812818
  Ewald energy   TEWEN  =      3532.69581032
  -Hartree energ DENC   =     -5073.69030167
  -exchange      EXHF   =         0.00000000
  -V(xc)+E(xc)   XCENC  =       115.90215499
  PAW double counting   =     15613.58665505   -15591.08616323
  entropy T*S    EENTRO =        -0.00000000
  eigenvalues    EBANDS =      -584.71167286
  atomic energy  EATOM  =      1913.30169869
  ---------------------------------------------------
  free energy    TOTEN  =       -73.61369053 eV

  energy without entropy =      -73.61369053  energy(sigma->0) =      -73.61369053


--------------------------------------------------------------------------------------------------------




--------------------------------------- Iteration      1(  27)  ---------------------------------------


    POTLOK:  cpu time     28.2383: real time     28.2463
    SETDIJ:  cpu time      0.0697: real time      0.0699
    TRIAL :  cpu time      0.5510: real time      0.5511
    CORREC:  cpu time     28.5361: real time     28.5448
    EDDIAG:  cpu time      0.2336: real time      0.2337
    CHARGE:  cpu time      0.1929: real time      0.1929
    --------------------------------------------
      LOOP:  cpu time     57.8347: real time     57.8691

 eigenvalue-minimisations  :     0
 total energy-change (2. order) :-0.6541813E-07  (-0.2582187E-07)
 number of electron      42.0000000 magnetization 
 augmentation part       -0.0121314 magnetization 

 Free energy of the ion-electron system (eV)
  ---------------------------------------------------
  alpha Z        PSCENC =         0.38812818
  Ewald energy   TEWEN  =      3532.69581032
  -Hartree energ DENC   =     -5073.69034874
  -exchange      EXHF   =         0.00000000
  -V(xc)+E(xc)   XCENC  =       115.90214421
  PAW double counting   =     15613.39602851   -15590.89552722
  entropy T*S    EENTRO =        -0.00000000
  eigenvalues    EBANDS =      -584.71162455
  atomic energy  EATOM  =      1913.30169869
  ---------------------------------------------------
  free energy    TOTEN  =       -73.61369059 eV

  energy without entropy =      -73.61369059  energy(sigma->0) =      -73.61369059


--------------------------------------------------------------------------------------------------------


  average scaling for gradient   0.8488


 average (electrostatic) potential at core
  the test charge radii are     0.5770  0.4325  0.5902  0.5955
  (the norm of the test charge is              1.0000)
       1 -90.1939       2 -89.8327       3 -87.8717       4 -89.3372       5 -49.9512
       6 -49.6183       7 -49.9452       8 -48.3278       9 -48.8237      10-105.6189
      11-103.5303      12-105.0558      13-118.5871



 E-fermi :  -5.9331     XC(G=0):  -0.2086     alpha+bet : -0.0667

 Fermi energy:        -5.9330671667

 k-point     1 :       0.0000    0.0000    0.0000
  band No.  band energies     occupation 
      1     -26.1570      2.00000
      2     -24.5173      2.00000
      3     -23.9051      2.00000
      4     -22.0393      2.00000
      5     -19.7769      2.00000
      6     -16.8675      2.00000
      7     -16.4696      2.00000
      8     -14.4183      2.00000
      9     -14.3540      2.00000
     10     -13.4371      2.00000
     11     -12.6801      2.00000
     12     -11.4127      2.00000
     13     -11.3952      2.00000
     14     -11.0506      2.00000
     15     -10.0339      2.00000
     16      -9.6405      2.00000
     17      -8.8180      2.00000
     18      -6.6831      2.00000
     19      -6.5763      2.00000
     20      -6.1181      2.00000
     21      -6.0056      2.00000
     22      -2.3658      0.00000
     23      -1.4268      0.00000
     24      -1.1105      0.00000
     25      -1.0381      0.00000
     26      -0.5190      0.00000
     27      -0.1463      0.00000
     28      -0.0926      0.00000


--------------------------------------------------------------------------------------------------------


 soft charge-density along one line, spin component           1
         0         1         2         3         4         5         6         7         8         9
 total charge-density along one line

 pseudopotential strength for first ion, spin component:           1
 12.729  21.426   0.001   0.001  -0.002   0.001   0.001  -0.003
 21.426  36.063   0.001   0.001  -0.003   0.002   0.002  -0.004
  0.001   0.001  -3.405   0.002  -0.008  -6.106   0.003  -0.014
  0.001   0.001   0.002  -3.414  -0.017   0.003  -6.122  -0.030
 -0.002  -0.003  -0.008  -0.017  -3.389  -0.014  -0.030  -6.078
  0.001   0.002  -6.106   0.003  -0.014 -10.928   0.006  -0.025
  0.001   0.002   0.003  -6.122  -0.030   0.006 -10.956  -0.053
 -0.003  -0.004  -0.014  -0.030  -6.078  -0.025  -0.053 -10.877
 total augmentation occupancy for first ion, spin component:           1
  6.796  -2.435  -0.128   0.731  -1.327   0.054  -0.338   0.616
 -2.435   1.006   0.024  -0.343   0.632  -0.020   0.162  -0.298
 -0.128   0.024   5.327  -0.191  -0.481  -1.714   0.085   0.179
  0.731  -0.343  -0.191   3.365  -2.411   0.085  -0.934   0.994
 -1.327   0.632  -0.481  -2.411   6.736   0.179   0.994  -2.318
  0.054  -0.020  -1.714   0.085   0.179   0.573  -0.031  -0.069
 -0.338   0.162   0.085  -0.934   0.994  -0.031   0.296  -0.400
  0.616  -0.298   0.179   0.994  -2.318  -0.069  -0.400   0.853


------------------------ aborting loop because EDIFF is reached ----------------------------------------


    FORLOC:  cpu time      0.0638: real time      0.0645
    FORNL :  cpu time      0.0419: real time      0.0419
    FORCOR:  cpu time     28.1083: real time     28.1175
    OFIELD:  cpu time      0.0076: real time      0.0076

 VOLUME and BASIS-vectors are now :
 -----------------------------------------------------------------------------
  energy-cutoff  :     1000.00
  volume of cell :    13750.00
      direct lattice vectors                 reciprocal lattice vectors
    25.000000000  0.000000000  0.000000000     0.040000000  0.000000000  0.000000000
     0.000000000 25.000000000  0.000000000     0.000000000  0.040000000  0.000000000
     0.000000000  0.000000000 22.000000000     0.000000000  0.000000000  0.045454545

  length of vectors
    25.000000000 25.000000000 22.000000000     0.040000000  0.040000000  0.045454545


 FORCES acting on ions:
    Electron-Ion                     Ewald-Force                    Non-Local-Force
 -----------------------------------------------------------------------------------------------
   0.444E+02 0.475E+00 -.224E+02   -.475E+02 -.460E+01 0.245E+02   0.313E+01 0.415E+01 -.218E+01
   -.896E+02 0.512E+02 0.392E+02   0.881E+02 -.448E+02 -.388E+02   0.154E+01 -.649E+01 -.518E+00
   -.187E+03 -.495E+02 0.105E+03   0.188E+03 0.504E+02 -.105E+03   -.667E+00 -.793E+00 0.524E+00
   -.984E+02 -.206E+03 0.791E+02   0.106E+03 0.205E+03 -.828E+02   -.707E+01 0.150E+01 0.355E+01
   0.543E+02 -.950E+02 -.159E+02   -.589E+02 0.101E+03 0.175E+02   0.460E+01 -.607E+01 -.162E+01
   0.879E+01 0.963E+02 -.266E+02   -.115E+02 -.103E+03 0.297E+02   0.279E+01 0.654E+01 -.320E+01
   -.928E+02 0.237E+02 0.314E+02   0.100E+03 -.236E+02 -.338E+02   -.737E+01 -.147E+00 0.254E+01
   -.769E+02 -.154E+02 0.430E+02   0.821E+02 0.159E+02 -.458E+02   -.530E+01 -.477E+00 0.291E+01
   -.286E+02 -.821E+02 0.260E+02   0.304E+02 0.877E+02 -.277E+02   -.179E+01 -.571E+01 0.171E+01
   0.874E+02 -.235E+03 -.136E+02   -.912E+02 0.233E+03 0.158E+02   0.355E+01 0.293E+01 -.214E+01
   0.918E+02 0.240E+03 -.812E+02   -.105E+03 -.272E+03 0.926E+02   0.132E+02 0.322E+02 -.116E+02
   -.148E+03 0.227E+03 0.657E+02   0.144E+03 -.229E+03 -.724E+02   0.405E+01 0.226E+01 0.671E+01
   0.377E+03 0.129E+02 -.201E+03   -.425E+03 -.154E+02 0.226E+03   0.470E+02 0.251E+01 -.253E+02
 -----------------------------------------------------------------------------------------------
   -.577E+02 -.324E+02 0.286E+02   0.114E-12 0.338E-13 0.000E+00   0.577E+02 0.324E+02 -.286E+02


 POSITION                                       TOTAL-FORCE (eV/Angst)
 -----------------------------------------------------------------------------------
     11.24786     12.78985     11.64079        -0.047065     -0.073804      0.035654
     13.17995     11.81945     10.75268         0.012979      0.031033     -0.001740
     13.71462     13.07304     10.30327         0.233711      0.130679     -0.146575
     12.95730     14.17490     10.55414         0.272689      0.315911     -0.186794
     11.18849     14.85318     11.39458         0.086061     -0.091248     -0.033001
     13.52822      9.82130     10.92847         0.080430      0.086921     -0.063961
     14.83162     10.70316     10.18711        -0.120386     -0.024398      0.048886
     14.66445     13.14725      9.78519        -0.146931     -0.020334      0.083836
     13.25509     15.17870     10.26230        -0.048400     -0.168606      0.048403
     11.77133     14.04717     11.19434        -0.219371      0.395913      0.062084
     12.02305     11.69032     11.38236        -0.020442     -0.214105      0.046635
     13.87564     10.67414     10.50890         0.225173     -0.362268     -0.053521
     10.16838     12.78283     12.21481        -0.308447     -0.005694      0.160093
 -----------------------------------------------------------------------------------
    total drift:                                0.000165      0.000259     -0.000244


--------------------------------------------------------------------------------------------------------



  FREE ENERGIE OF THE ION-ELECTRON SYSTEM (eV)
  ---------------------------------------------------
  free  energy   TOTEN  =       -73.61369059 eV

  energy  without entropy=      -73.61369059  energy(sigma->0) =      -73.61369059



--------------------------------------------------------------------------------------------------------


    POTLOK:  cpu time     29.0204: real time     29.0297


--------------------------------------------------------------------------------------------------------


 stress matrix after NEB project (eV)
      0.00000      0.00000      0.00000
      0.00000      0.00000      0.00000
      0.00000      0.00000      0.00000
  FORCES: max atom, RMS     0.457221    0.275908
  FORCE total and by dimension    0.994799    0.395913
  Stress total and by dimension    0.000000    0.000000
     LOOP+:  cpu time   1362.4629: real time   1363.2679
    4ORBIT:  cpu time      0.0000: real time      0.0000

 total amount of memory used by VASP MPI-rank0   136550. kBytes
=======================================================================

   base      :      30000. kBytes
   nonl-proj :       3574. kBytes
   fftplans  :      31236. kBytes
   grid      :      69150. kBytes
   one-center:          1. kBytes
   wavefun   :       2589. kBytes

  
  
 General timing and accounting informations for this job:
 ========================================================
  
                  Total CPU time used (sec):     1394.429
                            User time (sec):     1375.207
                          System time (sec):       19.222
                         Elapsed time (sec):     1400.704
  
                   Maximum memory used (kb):      851128.
                   Average memory used (kb):          N/A
  
                          Minor page faults:       447718
                          Major page faults:          404
                 Voluntary context switches:         6572
