 vasp.6.4.1 05Apr23 (build Jun  6 2023 14:36:51) complex                         
 executed on        HPECrayEX_GCC date 2024.08.20  14:35:55
 running  256 mpi-ranks, with    1 threads/rank, on    2 nodes
 distrk:  each k-point on  256 cores,    1 groups
 distr:  one band on NCORE=  64 cores,    4 groups


--------------------------------------------------------------------------------------------------------


 INCAR:
   ALGO = Conjugate
   NPAR = 4
   ISMEAR = 0
   SIGMA = 0.01
   PREC = Accurate
   EDIFF = 1E-7
   ENCUT = 1000
   ISIF = 0
   GGA = RE
   LUSE_VDW = .TRUE.
   AGGAC = 0.0000
   LASPH = .TRUE.
   LWAVE = .FALSE.
   LCHARGE = .FALSE.

 POTCAR:    PAW_PBE N_h 06Feb2004                 
 POTCAR:    PAW_PBE C_h 06Feb2004                 
 POTCAR:    PAW_PBE H_h 06Feb2004                 
 -----------------------------------------------------------------------------
|                                                                             |
|               ----> ADVICE to this user running VASP <----                  |
|                                                                             |
|     You have switched on vdW-DFT.                                           |
|     This routine was written and supplied by Jiri Klimes. We recommend      |
|     that you carefully read and cite the following publications:            |
|       J. Klimes, D.R. Bowler, A. Michelides                                 |
|          J. Phys.: Cond Matt. 22 022201 (2010)                              |
|       J. Klimes, D.R. Bowler, A. Michelides                                 |
|          Phys. Rev. B. 83, 195131 (2011)                                    |
|     and references therein.                                                 |
|                                                                             |
 -----------------------------------------------------------------------------

 POTCAR:    PAW_PBE N_h 06Feb2004                 
   VRHFIN =N: s2p3                                                                                  
   LEXCH  = PE                                                                                      
   EATOM  =   264.5486 eV,   19.4438 Ry                                                             
                                                                                                    
   TITEL  = PAW_PBE N_h 06Feb2004                                                                   
   LULTRA =        F    use ultrasoft PP ?                                                          
   IUNSCR =        1    unscreen: 0-lin 1-nonlin 2-no                                               
   RPACOR =    0.800    partial core radius                                                         
   POMASS =   14.001; ZVAL   =    5.000    mass and valenz                                          
   RCORE  =    1.100    outmost cutoff radius                                                       
   RWIGS  =    1.480; RWIGS  =    0.783    wigner-seitz radius (au A)                               
   ENMAX  =  700.000; ENMIN  =  500.000 eV                                                          
   ICORE  =        2    local potential                                                             
   LCOR   =        T    correct aug charges                                                         
   LPAW   =        T    paw PP                                                                      
   EAUG   =  904.640                                                                                
   DEXC   =    0.000                                                                                
   RMAX   =    1.127    core radius for proj-oper                                                   
   RAUG   =    1.300    factor for augmentation sphere                                              
   RDEP   =    1.115    radius for radial grids                                                     
   RDEPT  =    1.106    core radius for aug-charge                                                  
                                                                                                    
   Atomic configuration                                                                             
    4 entries                                                                                       
     n  l   j            E        occ.                                                              
     1  0  0.50      -384.7179   2.0000                                                             
     2  0  0.50       -18.5828   2.0000                                                             
     2  1  0.50        -7.0898   3.0000                                                             
     3  2  1.50        -6.8029   0.0000                                                             
   Description                                                                                      
     l       E           TYP  RCUT    TYP  RCUT                                                     
     0    -18.5828117     23  1.100                                                                 
     0    -15.0750597     23  1.100                                                                 
     1     -7.0897851     23  1.100                                                                 
     1     -1.9663412     23  1.100                                                                 
     2     -6.8029130      7  1.100                                                                 
  local pseudopotential read in
  partial core-charges read in
  partial kinetic energy density read in
  kinetic energy density of atom read in
  atomic valenz-charges read in
  non local Contribution for L=           0  read in
    real space projection operators read in
  non local Contribution for L=           0  read in
    real space projection operators read in
  non local Contribution for L=           1  read in
    real space projection operators read in
  non local Contribution for L=           1  read in
    real space projection operators read in
    PAW grid and wavefunctions read in

   number of l-projection  operators is LMAX  =           4
   number of lm-projection operators is LMMAX =           8

 POTCAR:    PAW_PBE C_h 06Feb2004                 
   VRHFIN =C: s2p2                                                                                  
   LEXCH  = PE                                                                                      
   EATOM  =   147.1560 eV,   10.8157 Ry                                                             
                                                                                                    
   TITEL  = PAW_PBE C_h 06Feb2004                                                                   
   LULTRA =        F    use ultrasoft PP ?                                                          
   IUNSCR =        1    unscreen: 0-lin 1-nonlin 2-no                                               
   RPACOR =    0.800    partial core radius                                                         
   POMASS =   12.011; ZVAL   =    4.000    mass and valenz                                          
   RCORE  =    1.100    outmost cutoff radius                                                       
   RWIGS  =    1.630; RWIGS  =    0.863    wigner-seitz radius (au A)                               
   ENMAX  =  700.000; ENMIN  =  500.000 eV                                                          
   ICORE  =        2    local potential                                                             
   LCOR   =        T    correct aug charges                                                         
   LPAW   =        T    paw PP                                                                      
   EAUG   =  946.768                                                                                
   DEXC   =    0.000                                                                                
   RMAX   =    1.128    core radius for proj-oper                                                   
   RAUG   =    1.300    factor for augmentation sphere                                              
   RDEP   =    1.162    radius for radial grids                                                     
   RDEPT  =    1.088    core radius for aug-charge                                                  
                                                                                                    
   Atomic configuration                                                                             
    4 entries                                                                                       
     n  l   j            E        occ.                                                              
     1  0  0.50      -273.3789   2.0000                                                             
     2  0  0.50       -13.7508   2.0000                                                             
     2  1  0.50        -5.2854   2.0000                                                             
     3  2  1.50        -5.4423   0.0000                                                             
   Description                                                                                      
     l       E           TYP  RCUT    TYP  RCUT                                                     
     0    -13.7508458     23  1.100                                                                 
     0     -8.2022199     23  1.100                                                                 
     1     -5.2854383     23  1.100                                                                 
     1      1.1560700     23  1.100                                                                 
     2     -5.4423304      7  1.100                                                                 
  local pseudopotential read in
  partial core-charges read in
  partial kinetic energy density read in
  atomic valenz-charges read in
  non local Contribution for L=           0  read in
    real space projection operators read in
  non local Contribution for L=           0  read in
    real space projection operators read in
  non local Contribution for L=           1  read in
    real space projection operators read in
  non local Contribution for L=           1  read in
    real space projection operators read in
    PAW grid and wavefunctions read in

   number of l-projection  operators is LMAX  =           4
   number of lm-projection operators is LMMAX =           8

 POTCAR:    PAW_PBE H_h 06Feb2004                 
   VRHFIN =H: ultrasoft test                                                                        
   LEXCH  = PE                                                                                      
   EATOM  =    12.4884 eV,    0.9179 Ry                                                             
                                                                                                    
   TITEL  = PAW_PBE H_h 06Feb2004                                                                   
   LULTRA =        F    use ultrasoft PP ?                                                          
   IUNSCR =        0    unscreen: 0-lin 1-nonlin 2-no                                               
   RPACOR =    0.000    partial core radius                                                         
   POMASS =    1.000; ZVAL   =    1.000    mass and valenz                                          
   RCORE  =    0.800    outmost cutoff radius                                                       
   RWIGS  =    0.700; RWIGS  =    0.370    wigner-seitz radius (au A)                               
   ENMAX  =  700.000; ENMIN  =  350.000 eV                                                          
   RCLOC  =    0.701    cutoff for local pot                                                        
   LCOR   =        T    correct aug charges                                                         
   LPAW   =        T    paw PP                                                                      
   EAUG   = 1000.000                                                                                
   RMAX   =    0.819    core radius for proj-oper                                                   
   RAUG   =    1.000    factor for augmentation sphere                                              
   RDEP   =    0.817    radius for radial grids                                                     
   RDEPT  =    0.817    core radius for aug-charge                                                  
                                                                                                    
   Atomic configuration                                                                             
    2 entries                                                                                       
     n  l   j            E        occ.                                                              
     1  0  0.50        -6.4927   1.0000                                                             
     2  1  0.50        -3.4015   0.0000                                                             
   Description                                                                                      
     l       E           TYP  RCUT    TYP  RCUT                                                     
     0     -6.4927493     23  0.800                                                                 
     0      6.8029130     23  0.800                                                                 
     1     -6.8029130     23  0.800                                                                 
  local pseudopotential read in
  atomic valenz-charges read in
  non local Contribution for L=           0  read in
    real space projection operators read in
  non local Contribution for L=           0  read in
    real space projection operators read in
  non local Contribution for L=           1  read in
    real space projection operators read in
    PAW grid and wavefunctions read in

   number of l-projection  operators is LMAX  =           3
   number of lm-projection operators is LMMAX =           5

 -----------------------------------------------------------------------------
|                                                                             |
|               ----> ADVICE to this user running VASP <----                  |
|                                                                             |
|     You have a (more or less) 'large supercell' and for larger cells it     |
|     might be more efficient to use real-space projection operators.         |
|     Therefore, try LREAL= Auto in the INCAR file.                           |
|     Mind: For very accurate calculation, you might also keep the            |
|     reciprocal projection scheme (i.e. LREAL=.FALSE.).                      |
|                                                                             |
 -----------------------------------------------------------------------------

 -----------------------------------------------------------------------------
|                                                                             |
|               ----> ADVICE to this user running VASP <----                  |
|                                                                             |
|     You enforced a specific xc type in the INCAR file but a different       |
|     type was found in the POTCAR file.                                      |
|     I HOPE YOU KNOW WHAT YOU ARE DOING!                                     |
|                                                                             |
 -----------------------------------------------------------------------------

  PAW_PBE N_h 06Feb2004                 :
 energy of atom  1       EATOM= -264.5486
 kinetic energy error for atom=    0.0081 (will be added to EATOM!!)
  PAW_PBE C_h 06Feb2004                 :
 energy of atom  2       EATOM= -147.1560
 kinetic energy error for atom=    0.0031 (will be added to EATOM!!)
  PAW_PBE H_h 06Feb2004                 :
 energy of atom  3       EATOM=  -12.4884
 kinetic energy error for atom=    0.0006 (will be added to EATOM!!)


 POSCAR:  N  C  H
  positions in cartesian coordinates
  No initial velocities read in
 exchange correlation table for  LEXCH =       40
   RHO(1)=    0.500       N(1)  =     2000
   RHO(2)=  100.500       N(2)  =     4000

 VTST: version 4.1, (05/19/21)

 CHAIN: initializing optimizer
 
 OPT: Using VASP Dynamics algorithm
 CHAIN: Read ICHAIN            0

 POSCAR:  N  C  H
  positions in cartesian coordinates
  No initial velocities read in



--------------------------------------------------------------------------------------------------------


 ion  position               nearest neighbor table
   1  0.151  1.000  1.000-   6 1.34   5 1.34
   2  0.849  0.000  0.000-   7 1.34   8 1.34
   3  0.651  0.500  0.500-  12 1.34   9 1.34
   4  0.349  0.500  0.500-  10 1.34  11 1.34
   5  0.075  0.178  0.124-  13 1.09   1 1.34   7 1.40
   6  0.075  0.822  0.876-  14 1.09   1 1.34   8 1.40
   7  0.925  0.178  0.124-  15 1.09   2 1.34   5 1.40
   8  0.925  0.822  0.876-  16 1.09   2 1.34   6 1.40
   9  0.575  0.322  0.624-  17 1.09   3 1.34  10 1.40
  10  0.425  0.322  0.624-  18 1.09   4 1.34   9 1.40
  11  0.425  0.678  0.376-  19 1.09   4 1.34  12 1.40
  12  0.575  0.678  0.376-  20 1.09   3 1.34  11 1.40
  13  0.136  0.324  0.228-   5 1.09
  14  0.136  0.676  0.772-   6 1.09
  15  0.864  0.324  0.228-   7 1.09
  16  0.864  0.676  0.772-   8 1.09
  17  0.636  0.176  0.728-   9 1.09
  18  0.364  0.176  0.728-  10 1.09
  19  0.364  0.824  0.272-  11 1.09
  20  0.636  0.824  0.272-  12 1.09

  LATTYP: Found a simple orthorhombic cell.
 ALAT       =     3.7330000000
 B/A-ratio  =     1.5671042057
 C/A-ratio  =     2.4979908920
  
  Lattice vectors:
  
 A1 = (   0.0000000000,   0.0000000000,  -3.7330000000)
 A2 = (   0.0000000000,   5.8500000000,   0.0000000000)
 A3 = (   9.3250000000,   0.0000000000,   0.0000000000)


Analysis of symmetry for initial positions (statically):
=====================================================================
 Subroutine PRICEL returns:
 Original cell was already a primitive cell.
 

 Routine SETGRP: Setting up the symmetry group for a 
 simple orthorhombic supercell.


 Subroutine GETGRP returns: Found  2 space group operations
 (whereof  2 operations were pure point group operations)
 out of a pool of  8 trial point group operations.


The static configuration has the point symmetry S_2 .


Analysis of symmetry for dynamics (positions and initial velocities):
=====================================================================
 Subroutine PRICEL returns:
 Original cell was already a primitive cell.
 

 Routine SETGRP: Setting up the symmetry group for a 
 simple orthorhombic supercell.


 Subroutine GETGRP returns: Found  2 space group operations
 (whereof  2 operations were pure point group operations)
 out of a pool of  8 trial point group operations.


The dynamic configuration has the point symmetry S_2 .


 Subroutine INISYM returns: Found  2 space group operations
 (whereof  2 operations are pure point group operations),
 and found     1 'primitive' translations


----------------------------------------------------------------------------------------

                                     Primitive cell                                     

  volume of cell :     203.6398

  direct lattice vectors                    reciprocal lattice vectors
     9.325000000  0.000000000  0.000000000     0.107238606  0.000000000  0.000000000
     0.000000000  5.850000000  0.000000000     0.000000000  0.170940171  0.000000000
     0.000000000  0.000000000  3.733000000     0.000000000  0.000000000  0.267881061

  length of vectors
     9.325000000  5.850000000  3.733000000     0.107238606  0.170940171  0.267881061

  position of ions in fractional coordinates (direct lattice)
     0.150669238  0.999996651  0.999994033
     0.849331286  0.000003349  0.000005967
     0.650673735  0.500015394  0.499984766
     0.349331358  0.499987061  0.500014182
     0.074891730  0.178355258  0.123908041
     0.074887651  0.821642811  0.876083246
     0.925112349  0.178351758  0.123916060
     0.925108503  0.821649483  0.876097782
     0.574892225  0.321650207  0.623904477
     0.425118700  0.321645377  0.623920907
     0.425111975  0.678351562  0.376094536
     0.574886666  0.678357837  0.376077834
     0.135820555  0.323602541  0.227928362
     0.135813324  0.676395330  0.772053947
     0.864185404  0.323605213  0.227952668
     0.864177472  0.676394169  0.772076294
     0.635836396  0.176403555  0.727923881
     0.364199748  0.176395180  0.727963179
     0.364168202  0.823599601  0.272077307
     0.635805652  0.823606609  0.272038715

  ion indices of the primitive-cell ions
   primitive index   ion index
                 1           1
                 2           2
                 3           3
                 4           4
                 5           5
                 6           6
                 7           7
                 8           8
                 9           9
                10          10
                11          11
                12          12
                13          13
                14          14
                15          15
                16          16
                17          17
                18          18
                19          19
                20          20

----------------------------------------------------------------------------------------



 KPOINTS: auto                                    

Automatic generation of k-mesh.
 Grid dimensions read from file:
 generate k-points for:    3    5    7

 Generating k-lattice:

  Cartesian coordinates                     Fractional coordinates (reciprocal lattice)
     0.035746202  0.000000000  0.000000000     0.333333333  0.000000000  0.000000000
     0.000000000  0.034188034  0.000000000     0.000000000  0.200000000  0.000000000
     0.000000000  0.000000000  0.038268723     0.000000000  0.000000000  0.142857143

  Length of vectors
     0.035746202  0.034188034  0.038268723

  Shift w.r.t. Gamma in fractional coordinates (k-lattice)
     0.000000000  0.000000000  0.000000000

 
 Subroutine IBZKPT returns following result:
 ===========================================
 
 Found     53 irreducible k-points:
 
 Following reciprocal coordinates:
            Coordinates               Weight
  0.000000  0.000000  0.000000      1.000000
  0.333333  0.000000  0.000000      2.000000
  0.000000  0.200000  0.000000      2.000000
  0.333333  0.200000  0.000000      2.000000
 -0.333333  0.200000  0.000000      2.000000
  0.000000  0.400000  0.000000      2.000000
  0.333333  0.400000  0.000000      2.000000
 -0.333333  0.400000  0.000000      2.000000
  0.000000  0.000000  0.142857      2.000000
  0.333333  0.000000  0.142857      2.000000
 -0.333333  0.000000  0.142857      2.000000
  0.000000  0.200000  0.142857      2.000000
  0.000000 -0.200000  0.142857      2.000000
  0.333333  0.200000  0.142857      2.000000
 -0.333333 -0.200000  0.142857      2.000000
 -0.333333  0.200000 -0.142857      2.000000
  0.333333 -0.200000 -0.142857      2.000000
  0.000000  0.400000  0.142857      2.000000
  0.000000 -0.400000  0.142857      2.000000
  0.333333  0.400000  0.142857      2.000000
 -0.333333 -0.400000  0.142857      2.000000
 -0.333333  0.400000 -0.142857      2.000000
  0.333333 -0.400000 -0.142857      2.000000
  0.000000  0.000000  0.285714      2.000000
  0.333333  0.000000  0.285714      2.000000
 -0.333333  0.000000  0.285714      2.000000
  0.000000  0.200000  0.285714      2.000000
  0.000000 -0.200000  0.285714      2.000000
  0.333333  0.200000  0.285714      2.000000
 -0.333333 -0.200000  0.285714      2.000000
 -0.333333  0.200000 -0.285714      2.000000
  0.333333 -0.200000 -0.285714      2.000000
  0.000000  0.400000  0.285714      2.000000
  0.000000 -0.400000  0.285714      2.000000
  0.333333  0.400000  0.285714      2.000000
 -0.333333 -0.400000  0.285714      2.000000
 -0.333333  0.400000 -0.285714      2.000000
  0.333333 -0.400000 -0.285714      2.000000
  0.000000  0.000000  0.428571      2.000000
  0.333333  0.000000  0.428571      2.000000
 -0.333333  0.000000  0.428571      2.000000
  0.000000  0.200000  0.428571      2.000000
  0.000000 -0.200000  0.428571      2.000000
  0.333333  0.200000  0.428571      2.000000
 -0.333333 -0.200000  0.428571      2.000000
 -0.333333  0.200000 -0.428571      2.000000
  0.333333 -0.200000 -0.428571      2.000000
  0.000000  0.400000  0.428571      2.000000
  0.000000 -0.400000  0.428571      2.000000
  0.333333  0.400000  0.428571      2.000000
 -0.333333 -0.400000  0.428571      2.000000
 -0.333333  0.400000 -0.428571      2.000000
  0.333333 -0.400000 -0.428571      2.000000
 
 Following cartesian coordinates:
            Coordinates               Weight
  0.000000  0.000000  0.000000      1.000000
  0.035746  0.000000  0.000000      2.000000
  0.000000  0.034188  0.000000      2.000000
  0.035746  0.034188  0.000000      2.000000
 -0.035746  0.034188  0.000000      2.000000
  0.000000  0.068376  0.000000      2.000000
  0.035746  0.068376  0.000000      2.000000
 -0.035746  0.068376  0.000000      2.000000
  0.000000  0.000000  0.038269      2.000000
  0.035746  0.000000  0.038269      2.000000
 -0.035746  0.000000  0.038269      2.000000
  0.000000  0.034188  0.038269      2.000000
  0.000000 -0.034188  0.038269      2.000000
  0.035746  0.034188  0.038269      2.000000
 -0.035746 -0.034188  0.038269      2.000000
 -0.035746  0.034188 -0.038269      2.000000
  0.035746 -0.034188 -0.038269      2.000000
  0.000000  0.068376  0.038269      2.000000
  0.000000 -0.068376  0.038269      2.000000
  0.035746  0.068376  0.038269      2.000000
 -0.035746 -0.068376  0.038269      2.000000
 -0.035746  0.068376 -0.038269      2.000000
  0.035746 -0.068376 -0.038269      2.000000
  0.000000  0.000000  0.076537      2.000000
  0.035746  0.000000  0.076537      2.000000
 -0.035746  0.000000  0.076537      2.000000
  0.000000  0.034188  0.076537      2.000000
  0.000000 -0.034188  0.076537      2.000000
  0.035746  0.034188  0.076537      2.000000
 -0.035746 -0.034188  0.076537      2.000000
 -0.035746  0.034188 -0.076537      2.000000
  0.035746 -0.034188 -0.076537      2.000000
  0.000000  0.068376  0.076537      2.000000
  0.000000 -0.068376  0.076537      2.000000
  0.035746  0.068376  0.076537      2.000000
 -0.035746 -0.068376  0.076537      2.000000
 -0.035746  0.068376 -0.076537      2.000000
  0.035746 -0.068376 -0.076537      2.000000
  0.000000  0.000000  0.114806      2.000000
  0.035746  0.000000  0.114806      2.000000
 -0.035746  0.000000  0.114806      2.000000
  0.000000  0.034188  0.114806      2.000000
  0.000000 -0.034188  0.114806      2.000000
  0.035746  0.034188  0.114806      2.000000
 -0.035746 -0.034188  0.114806      2.000000
 -0.035746  0.034188 -0.114806      2.000000
  0.035746 -0.034188 -0.114806      2.000000
  0.000000  0.068376  0.114806      2.000000
  0.000000 -0.068376  0.114806      2.000000
  0.035746  0.068376  0.114806      2.000000
 -0.035746 -0.068376  0.114806      2.000000
 -0.035746  0.068376 -0.114806      2.000000
  0.035746 -0.068376 -0.114806      2.000000
 


--------------------------------------------------------------------------------------------------------




 Dimension of arrays:
   k-points           NKPTS =     53   k-points in BZ     NKDIM =     53   number of bands    NBANDS=     44
   number of dos      NEDOS =    301   number of ions     NIONS =     20
   non local maximal  LDIM  =      4   non local SUM 2l+1 LMDIM =      8
   total plane-waves  NPLWV = 230400
   max r-space proj   IRMAX =      1   max aug-charges    IRDMAX=   8234
   dimension x,y,z NGX =    96 NGY =   60 NGZ =   40
   dimension x,y,z NGXF=   192 NGYF=  120 NGZF=   80
   support grid    NGXF=   192 NGYF=  120 NGZF=   80
   ions per type =               4   8   8
   NGX,Y,Z   is equivalent  to a cutoff of  17.11, 17.05, 17.81 a.u.
   NGXF,Y,Z  is equivalent  to a cutoff of  34.23, 34.10, 35.63 a.u.

 SYSTEM =  unknown system                          
 POSCAR =   N  C  H                                

 Startparameter for this run:
   NWRITE =      2    write-flag & timer
   PREC   = accura    normal or accurate (medium, high low for compatibility)
   ISTART =      0    job   : 0-new  1-cont  2-samecut
   ICHARG =      2    charge: 1-file 2-atom 10-const
   ISPIN  =      1    spin polarized calculation?
   LNONCOLLINEAR =      F non collinear calculations
   LSORBIT =      F    spin-orbit coupling
   INIWAV =      1    electr: 0-lowe 1-rand  2-diag
   LASPH  =      T    aspherical Exc in radial PAW
 Electronic Relaxation 1
   ENCUT  = 1000.0 eV  73.50 Ry    8.57 a.u.  24.04 15.08  9.63*2*pi/ulx,y,z
   ENINI  = 1000.0     initial cutoff
   ENAUG  = 1000.0 eV  augmentation charge cutoff
   NELM   =     60;   NELMIN=  2; NELMDL= -5     # of ELM steps 
   EDIFF  = 0.1E-06   stopping-criterion for ELM
   LREAL  =      F    real-space projection
   NLSPLINE    = F    spline interpolate recip. space projectors
   LCOMPAT=      F    compatible to vasp.4.4
   GGA_COMPAT  = T    GGA compatible to vasp.4.4-vasp.4.6
   LMAXPAW     = -100 max onsite density
   LMAXMIX     =    2 max onsite mixed and CHGCAR
   VOSKOWN=      0    Vosko Wilk Nusair interpolation
   ROPT   =    0.00000   0.00000   0.00000
 Ionic relaxation
   EDIFFG = 0.1E-05   stopping-criterion for IOM
   NSW    =      0    number of steps for IOM
   NBLOCK =      1;   KBLOCK =      1    inner block; outer block 
   IBRION =     -1    ionic relax: 0-MD 1-quasi-New 2-CG
   NFREE  =      0    steps in history (QN), initial steepest desc. (CG)
   ISIF   =      0    stress and relaxation
   IWAVPR =     10    prediction:  0-non 1-charg 2-wave 3-comb
   ISYM   =      2    0-nonsym 1-usesym 2-fastsym
   LCORR  =      T    Harris-Foulkes like correction to forces

   POTIM  = 0.5000    time-step for ionic-motion
   TEIN   =    0.0    initial temperature
   TEBEG  =    0.0;   TEEND  =   0.0 temperature during run
   SMASS  =  -3.00    Nose mass-parameter (am)
   estimated Nose-frequenzy (Omega)   =  0.10E-29 period in steps = 0.13E+47 mass=  -0.199E-26a.u.
   SCALEE = 1.0000    scale energy and forces
   NPACO  =    256;   APACO  = 10.0  distance and # of slots for P.C.
   PSTRESS=    0.0 pullay stress

  Mass of Ions in am
   POMASS =  14.00 12.01  1.00
  Ionic Valenz
   ZVAL   =   5.00  4.00  1.00
  Atomic Wigner-Seitz radii
   RWIGS  =  -1.00 -1.00 -1.00
  virtual crystal weights 
   VCA    =   1.00  1.00  1.00
   NELECT =      60.0000    total number of electrons
   NUPDOWN=      -1.0000    fix difference up-down

 DOS related values:
   EMIN   =  10.00;   EMAX   =-10.00  energy-range for DOS
   EFERMI =   0.00;   METHOD = LEGACY      
   ISMEAR =     0;   SIGMA  =   0.01  broadening in eV -4-tet -1-fermi 0-gaus

 Electronic relaxation 2 (details)
   IALGO  =     58    algorithm
   LDIAG  =      T    sub-space diagonalisation (order eigenvalues)
   LSUBROT=      F    optimize rotation matrix (better conditioning)
   TURBO    =      0    0=normal 1=particle mesh
   IRESTART =      0    0=no restart 2=restart with 2 vectors
   NREBOOT  =      0    no. of reboots
   NMIN     =      0    reboot dimension
   EREF     =   0.00    reference energy to select bands
   IMIX   =      4    mixing-type and parameters
     AMIX     =   0.40;   BMIX     =  1.00
     AMIX_MAG =   1.60;   BMIX_MAG =  1.00
     AMIN     =   0.10
     WC   =   100.;   INIMIX=   1;  MIXPRE=   1;  MAXMIX= -45

 Intra band minimization:
   WEIMIN = 0.0000     energy-eigenvalue tresh-hold
   EBREAK =  0.57E-09  absolut break condition
   DEPER  =   0.30     relativ break condition  

   TIME   =   0.40     timestep for ELM

  volume/ion in A,a.u.               =      10.18        68.71
  Fermi-wavevector in a.u.,A,eV,Ry     =   1.089359  2.058590 16.146074  1.186703
  Thomas-Fermi vector in A             =   2.225560

 Write flags
   LWAVE        =      F    write WAVECAR
   LDOWNSAMPLE  =      F    k-point downsampling of WAVECAR
   LCHARG       =      T    write CHGCAR
   LVTOT        =      F    write LOCPOT, total local potential
   LVHAR        =      F    write LOCPOT, Hartree potential only
   LELF         =      F    write electronic localiz. function (ELF)
   LORBIT       =      0    0 simple, 1 ext, 2 COOP (PROOUT), +10 PAW based schemes


 Dipole corrections
   LMONO  =      F    monopole corrections only (constant potential shift)
   LDIPOL =      F    correct potential (dipole corrections)
   IDIPOL =      0    1-x, 2-y, 3-z, 4-all directions 
   EPSILON=  1.0000000 bulk dielectric constant

 Exchange correlation treatment:
   GGA     =    RE    GGA type
   LEXCH   =    40    internal setting for exchange type
   LIBXC   =     F    Libxc                    
   VOSKOWN =     0    Vosko Wilk Nusair interpolation
   LHFCALC =     F    Hartree Fock is set to
   LHFONE  =     F    Hartree Fock one center treatment
   AEXX    =    0.0000 exact exchange contribution

 vdW DFT:
   LUSE_VDW   =     T    switch on vdW DFT
   IVDW_NL    =     1    kernel type
   LSPIN_VDW  =     F    use spin-polarized vdW DFT
   Zab_VDW    =-.8491    correlation parameter
   PARAM1     =0.1234
   PARAM2     =1.0000
   PARAM3     =0.0000
   -- rVV10 --
   BPARAM     = 6.3000
   CPARAM     = 0.0093

 Linear response parameters
   LEPSILON=     F    determine dielectric tensor
   LRPA    =     F    only Hartree local field effects (RPA)
   LNABLA  =     F    use nabla operator in PAW spheres
   LVEL    =     F    velocity operator in full k-point grid
   CSHIFT  =0.1000    complex shift for real part using Kramers Kronig
   OMEGAMAX=  -1.0    maximum frequency
   DEG_THRESHOLD= 0.2000000E-02 threshold for treating states as degnerate
   RTIME   =   -0.100 relaxation time in fs
  (WPLASMAI=    0.000 imaginary part of plasma frequency in eV, 0.658/RTIME)
   DFIELD  = 0.0000000 0.0000000 0.0000000 field for delta impulse in time

  Optional k-point grid parameters
   LKPOINTS_OPT  =     F    use optional k-point grid
   KPOINTS_OPT_MODE=     1    mode for optional k-point grid

 Orbital magnetization related:
   ORBITALMAG=     F  switch on orbital magnetization
   LCHIMAG   =     F  perturbation theory with respect to B field
   DQ        =  0.001000  dq finite difference perturbation B field
   LLRAUG    =     F  two centre corrections for induced B field
   LBONE     =     F  B-component reconstruction in AE one-centre
   LVGVCALC  =     T  calculate vGv susceptibility
   LVGVAPPL  =     F  apply vGv susceptibility instead of pGv for G=0

 Random number generation:
   RANDOM_GENERATOR = DEFAULT
   PCG_SEED         = not used


--------------------------------------------------------------------------------------------------------


 Static calculation
 charge density and potential will be updated during run
 non-spin polarized calculation
 Conjugate gradient for all bands (Freysoldt, et al. PRB 79, 241103 (2009))
 preconditioned conjugated gradient                                        
 perform sub-space diagonalisation
    before iterative eigenvector-optimisation
 modified Broyden-mixing scheme, WC =      100.0
 initial mixing is a Kerker type mixing with AMIX =  0.4000 and BMIX =      1.0000
 Hartree-type preconditioning will be used
 using additional bands           14
 reciprocal scheme for non local part
 use partial core corrections
 no Harris-corrections to forces 
 use gradient corrections 
 use of overlap-Matrix (Vanderbilt PP)
 Gauss-broadening in eV      SIGMA  =   0.01


--------------------------------------------------------------------------------------------------------


  energy-cutoff  :     1000.00
  volume of cell :      203.64
      direct lattice vectors                 reciprocal lattice vectors
     9.325000000  0.000000000  0.000000000     0.107238606  0.000000000  0.000000000
     0.000000000  5.850000000  0.000000000     0.000000000  0.170940171  0.000000000
     0.000000000  0.000000000  3.733000000     0.000000000  0.000000000  0.267881061

  length of vectors
     9.325000000  5.850000000  3.733000000     0.107238606  0.170940171  0.267881061



 k-points in units of 2pi/SCALE and weight: auto                                    
   0.00000000  0.00000000  0.00000000       0.010
   0.03574620  0.00000000  0.00000000       0.019
   0.00000000  0.03418803  0.00000000       0.019
   0.03574620  0.03418803  0.00000000       0.019
  -0.03574620  0.03418803  0.00000000       0.019
   0.00000000  0.06837607  0.00000000       0.019
   0.03574620  0.06837607  0.00000000       0.019
  -0.03574620  0.06837607  0.00000000       0.019
   0.00000000  0.00000000  0.03826872       0.019
   0.03574620  0.00000000  0.03826872       0.019
  -0.03574620  0.00000000  0.03826872       0.019
   0.00000000  0.03418803  0.03826872       0.019
   0.00000000 -0.03418803  0.03826872       0.019
   0.03574620  0.03418803  0.03826872       0.019
  -0.03574620 -0.03418803  0.03826872       0.019
  -0.03574620  0.03418803 -0.03826872       0.019
   0.03574620 -0.03418803 -0.03826872       0.019
   0.00000000  0.06837607  0.03826872       0.019
   0.00000000 -0.06837607  0.03826872       0.019
   0.03574620  0.06837607  0.03826872       0.019
  -0.03574620 -0.06837607  0.03826872       0.019
  -0.03574620  0.06837607 -0.03826872       0.019
   0.03574620 -0.06837607 -0.03826872       0.019
   0.00000000  0.00000000  0.07653745       0.019
   0.03574620  0.00000000  0.07653745       0.019
  -0.03574620  0.00000000  0.07653745       0.019
   0.00000000  0.03418803  0.07653745       0.019
   0.00000000 -0.03418803  0.07653745       0.019
   0.03574620  0.03418803  0.07653745       0.019
  -0.03574620 -0.03418803  0.07653745       0.019
  -0.03574620  0.03418803 -0.07653745       0.019
   0.03574620 -0.03418803 -0.07653745       0.019
   0.00000000  0.06837607  0.07653745       0.019
   0.00000000 -0.06837607  0.07653745       0.019
   0.03574620  0.06837607  0.07653745       0.019
  -0.03574620 -0.06837607  0.07653745       0.019
  -0.03574620  0.06837607 -0.07653745       0.019
   0.03574620 -0.06837607 -0.07653745       0.019
   0.00000000  0.00000000  0.11480617       0.019
   0.03574620  0.00000000  0.11480617       0.019
  -0.03574620  0.00000000  0.11480617       0.019
   0.00000000  0.03418803  0.11480617       0.019
   0.00000000 -0.03418803  0.11480617       0.019
   0.03574620  0.03418803  0.11480617       0.019
  -0.03574620 -0.03418803  0.11480617       0.019
  -0.03574620  0.03418803 -0.11480617       0.019
   0.03574620 -0.03418803 -0.11480617       0.019
   0.00000000  0.06837607  0.11480617       0.019
   0.00000000 -0.06837607  0.11480617       0.019
   0.03574620  0.06837607  0.11480617       0.019
  -0.03574620 -0.06837607  0.11480617       0.019
  -0.03574620  0.06837607 -0.11480617       0.019
   0.03574620 -0.06837607 -0.11480617       0.019

 k-points in reciprocal lattice and weights: auto                                    
   0.00000000  0.00000000  0.00000000       0.010
   0.33333333  0.00000000  0.00000000       0.019
   0.00000000  0.20000000  0.00000000       0.019
   0.33333333  0.20000000  0.00000000       0.019
  -0.33333333  0.20000000  0.00000000       0.019
   0.00000000  0.40000000  0.00000000       0.019
   0.33333333  0.40000000  0.00000000       0.019
  -0.33333333  0.40000000  0.00000000       0.019
   0.00000000  0.00000000  0.14285714       0.019
   0.33333333  0.00000000  0.14285714       0.019
  -0.33333333  0.00000000  0.14285714       0.019
   0.00000000  0.20000000  0.14285714       0.019
   0.00000000 -0.20000000  0.14285714       0.019
   0.33333333  0.20000000  0.14285714       0.019
  -0.33333333 -0.20000000  0.14285714       0.019
  -0.33333333  0.20000000 -0.14285714       0.019
   0.33333333 -0.20000000 -0.14285714       0.019
   0.00000000  0.40000000  0.14285714       0.019
   0.00000000 -0.40000000  0.14285714       0.019
   0.33333333  0.40000000  0.14285714       0.019
  -0.33333333 -0.40000000  0.14285714       0.019
  -0.33333333  0.40000000 -0.14285714       0.019
   0.33333333 -0.40000000 -0.14285714       0.019
   0.00000000  0.00000000  0.28571429       0.019
   0.33333333  0.00000000  0.28571429       0.019
  -0.33333333  0.00000000  0.28571429       0.019
   0.00000000  0.20000000  0.28571429       0.019
   0.00000000 -0.20000000  0.28571429       0.019
   0.33333333  0.20000000  0.28571429       0.019
  -0.33333333 -0.20000000  0.28571429       0.019
  -0.33333333  0.20000000 -0.28571429       0.019
   0.33333333 -0.20000000 -0.28571429       0.019
   0.00000000  0.40000000  0.28571429       0.019
   0.00000000 -0.40000000  0.28571429       0.019
   0.33333333  0.40000000  0.28571429       0.019
  -0.33333333 -0.40000000  0.28571429       0.019
  -0.33333333  0.40000000 -0.28571429       0.019
   0.33333333 -0.40000000 -0.28571429       0.019
   0.00000000  0.00000000  0.42857143       0.019
   0.33333333  0.00000000  0.42857143       0.019
  -0.33333333  0.00000000  0.42857143       0.019
   0.00000000  0.20000000  0.42857143       0.019
   0.00000000 -0.20000000  0.42857143       0.019
   0.33333333  0.20000000  0.42857143       0.019
  -0.33333333 -0.20000000  0.42857143       0.019
  -0.33333333  0.20000000 -0.42857143       0.019
   0.33333333 -0.20000000 -0.42857143       0.019
   0.00000000  0.40000000  0.42857143       0.019
   0.00000000 -0.40000000  0.42857143       0.019
   0.33333333  0.40000000  0.42857143       0.019
  -0.33333333 -0.40000000  0.42857143       0.019
  -0.33333333  0.40000000 -0.42857143       0.019
   0.33333333 -0.40000000 -0.42857143       0.019

 position of ions in fractional coordinates (direct lattice) 
   0.15066924  0.99999665  0.99999403
   0.84933129  0.00000335  0.00000597
   0.65067374  0.50001539  0.49998477
   0.34933136  0.49998706  0.50001418
   0.07489173  0.17835526  0.12390804
   0.07488765  0.82164281  0.87608325
   0.92511235  0.17835176  0.12391606
   0.92510850  0.82164948  0.87609778
   0.57489223  0.32165021  0.62390448
   0.42511870  0.32164538  0.62392091
   0.42511198  0.67835156  0.37609454
   0.57488667  0.67835784  0.37607783
   0.13582056  0.32360254  0.22792836
   0.13581332  0.67639533  0.77205395
   0.86418540  0.32360521  0.22795267
   0.86417747  0.67639417  0.77207629
   0.63583640  0.17640356  0.72792388
   0.36419975  0.17639518  0.72796318
   0.36416820  0.82359960  0.27207731
   0.63580565  0.82360661  0.27203872

 position of ions in cartesian coordinates  (Angst):
   1.40499064  5.84998041  3.73297772
   7.92001424  0.00001959  0.00002228
   6.06753258  2.92509006  1.86644313
   3.25751491  2.92492431  1.86655294
   0.69836538  1.04337826  0.46254872
   0.69832735  4.80661044  3.27041876
   8.62667265  1.04335779  0.46257865
   8.62663679  4.80664948  3.27047302
   5.36087000  1.88165371  2.32903541
   3.96423188  1.88162545  2.32909675
   3.96416917  3.96835664  1.40396090
   5.36081816  3.96839334  1.40389856
   1.26652668  1.89307486  0.85085658
   1.26645924  3.95691268  2.88207739
   8.05852889  1.89309050  0.85094731
   8.05845493  3.95690589  2.88216080
   5.92917440  1.03196080  2.71733985
   3.39616265  1.03191180  2.71748655
   3.39586849  4.81805766  1.01566459
   5.92888770  4.81809866  1.01552052



--------------------------------------------------------------------------------------------------------


 k-point   1 :   0.0000 0.0000 0.0000  plane waves:   14609
 k-point   2 :   0.3333 0.0000 0.0000  plane waves:   14648
 k-point   3 :   0.0000 0.2000 0.0000  plane waves:   14622
 k-point   4 :   0.3333 0.2000 0.0000  plane waves:   14644
 k-point   5 :  -0.3333 0.2000 0.0000  plane waves:   14644
 k-point   6 :   0.0000 0.4000 0.0000  plane waves:   14630
 k-point   7 :   0.3333 0.4000 0.0000  plane waves:   14646
 k-point   8 :  -0.3333 0.4000 0.0000  plane waves:   14646
 k-point   9 :   0.0000 0.0000 0.1429  plane waves:   14601
 k-point  10 :   0.3333 0.0000 0.1429  plane waves:   14623
 k-point  11 :  -0.3333 0.0000 0.1429  plane waves:   14623
 k-point  12 :   0.0000 0.2000 0.1429  plane waves:   14609
 k-point  13 :   0.0000-0.2000 0.1429  plane waves:   14609
 k-point  14 :   0.3333 0.2000 0.1429  plane waves:   14634
 k-point  15 :  -0.3333-0.2000 0.1429  plane waves:   14634
 k-point  16 :  -0.3333 0.2000-0.1429  plane waves:   14634
 k-point  17 :   0.3333-0.2000-0.1429  plane waves:   14634
 k-point  18 :   0.0000 0.4000 0.1429  plane waves:   14642
 k-point  19 :   0.0000-0.4000 0.1429  plane waves:   14642
 k-point  20 :   0.3333 0.4000 0.1429  plane waves:   14656
 k-point  21 :  -0.3333-0.4000 0.1429  plane waves:   14656
 k-point  22 :  -0.3333 0.4000-0.1429  plane waves:   14656
 k-point  23 :   0.3333-0.4000-0.1429  plane waves:   14656
 k-point  24 :   0.0000 0.0000 0.2857  plane waves:   14613
 k-point  25 :   0.3333 0.0000 0.2857  plane waves:   14598
 k-point  26 :  -0.3333 0.0000 0.2857  plane waves:   14598
 k-point  27 :   0.0000 0.2000 0.2857  plane waves:   14619
 k-point  28 :   0.0000-0.2000 0.2857  plane waves:   14619
 k-point  29 :   0.3333 0.2000 0.2857  plane waves:   14620
 k-point  30 :  -0.3333-0.2000 0.2857  plane waves:   14620
 k-point  31 :  -0.3333 0.2000-0.2857  plane waves:   14620
 k-point  32 :   0.3333-0.2000-0.2857  plane waves:   14620
 k-point  33 :   0.0000 0.4000 0.2857  plane waves:   14620
 k-point  34 :   0.0000-0.4000 0.2857  plane waves:   14620
 k-point  35 :   0.3333 0.4000 0.2857  plane waves:   14645
 k-point  36 :  -0.3333-0.4000 0.2857  plane waves:   14645
 k-point  37 :  -0.3333 0.4000-0.2857  plane waves:   14645
 k-point  38 :   0.3333-0.4000-0.2857  plane waves:   14645
 k-point  39 :   0.0000 0.0000 0.4286  plane waves:   14626
 k-point  40 :   0.3333 0.0000 0.4286  plane waves:   14598
 k-point  41 :  -0.3333 0.0000 0.4286  plane waves:   14598
 k-point  42 :   0.0000 0.2000 0.4286  plane waves:   14621
 k-point  43 :   0.0000-0.2000 0.4286  plane waves:   14621
 k-point  44 :   0.3333 0.2000 0.4286  plane waves:   14608
 k-point  45 :  -0.3333-0.2000 0.4286  plane waves:   14608
 k-point  46 :  -0.3333 0.2000-0.4286  plane waves:   14608
 k-point  47 :   0.3333-0.2000-0.4286  plane waves:   14608
 k-point  48 :   0.0000 0.4000 0.4286  plane waves:   14589
 k-point  49 :   0.0000-0.4000 0.4286  plane waves:   14589
 k-point  50 :   0.3333 0.4000 0.4286  plane waves:   14606
 k-point  51 :  -0.3333-0.4000 0.4286  plane waves:   14606
 k-point  52 :  -0.3333 0.4000-0.4286  plane waves:   14606
 k-point  53 :   0.3333-0.4000-0.4286  plane waves:   14606

 maximum and minimum number of plane-waves per node :       267      191

 maximum number of plane-waves:     14656
 maximum index in each direction: 
   IXMAX=   24   IYMAX=   15   IZMAX=   10
   IXMIN=  -24   IYMIN=  -15   IZMIN=  -10


 parallel 3D FFT for wavefunctions:
    minimum data exchange during FFTs selected (reduces bandwidth)
 parallel 3D FFT for charge:
    minimum data exchange during FFTs selected (reduces bandwidth)


 total amount of memory used by VASP MPI-rank0    41580. kBytes
=======================================================================

   base      :      30000. kBytes
   nonl-proj :       2728. kBytes
   fftplans  :        533. kBytes
   grid      :        819. kBytes
   one-center:          3. kBytes
   wavefun   :       7497. kBytes

     INWAV:  cpu time      0.0000: real time      0.0000
 Broyden mixing: mesh for mixing (old mesh)
   NGX = 49   NGY = 31   NGZ = 19
  (NGX  =192   NGY  =120   NGZ  = 80)
  gives a total of  28861 points

 initial charge density was supplied:
 charge density of overlapping atoms calculated
 number of electron      60.0000000 magnetization 
 keeping initial charge density in first step


--------------------------------------------------------------------------------------------------------


 Maximum index for augmentation-charges            0 (set IRDMAX)


--------------------------------------------------------------------------------------------------------


 First call to EWALD:  gamma=   0.301
 Maximum number of real-space cells 2x 3x 4
 Maximum number of reciprocal cells 4x 3x 2

    FEWALD:  cpu time      0.0035: real time      0.0035


--------------------------------------- Ionic step        1  -------------------------------------------




--------------------------------------- Iteration      1(   1)  ---------------------------------------


vdW kernel read from vdw_kernel.bindat
  0.0000  0.2424  0.5071  0.7962  1.1119  1.4567  1.8333  2.2446  2.6937  3.1842
  3.7199  4.3049  4.9438  5.6415  6.4036  7.2358  8.1446  9.1372 10.2212 11.4050
 12.6979 14.1099 15.6519 17.3360 19.1751 21.1837 23.3773 25.7729 28.3892 31.2465
 34.3669 37.7748 41.4965 45.5611 50.0000

    POTLOK:  cpu time      1.0041: real time      1.0671
    SETDIJ:  cpu time      0.0714: real time      0.0714
    TRIAL :  cpu time      2.0663: real time      2.0688
    CORREC:  cpu time      0.0035: real time      0.0035
    --------------------------------------------
      LOOP:  cpu time      3.1478: real time      3.2132

 eigenvalue-minimisations  :  4664
 total energy-change (2. order) : 0.4747680E+03  (-0.4419569E+04)
 number of electron      60.0000000 magnetization 
 augmentation part       60.0000000 magnetization 

 Free energy of the ion-electron system (eV)
  ---------------------------------------------------
  alpha Z        PSCENC =        55.52509218
  Ewald energy   TEWEN  =     -1086.26724324
  -Hartree energ DENC   =     -1024.31100298
  -exchange      EXHF   =         0.00000000
  -V(xc)+E(xc)   XCENC  =       132.97018794
  PAW double counting   =      1761.51743572    -1708.19287285
  entropy T*S    EENTRO =        -0.00026896
  eigenvalues    EBANDS =       -25.56546758
  atomic energy  EATOM  =      2369.09209771
  ---------------------------------------------------
  free energy    TOTEN  =       474.76795793 eV

  energy without entropy =      474.76822689  energy(sigma->0) =      474.76809241


--------------------------------------------------------------------------------------------------------




--------------------------------------- Iteration      1(   2)  ---------------------------------------


    TRIAL :  cpu time      2.4533: real time      2.4541
    CORREC:  cpu time      0.0003: real time      0.0003
    --------------------------------------------
      LOOP:  cpu time      2.4667: real time      2.4848

 eigenvalue-minimisations  :  6248
 total energy-change (2. order) :-0.5251664E+03  (-0.5020694E+03)
 number of electron      60.0000000 magnetization 
 augmentation part       60.0000000 magnetization 

 Free energy of the ion-electron system (eV)
  ---------------------------------------------------
  alpha Z        PSCENC =        55.52509218
  Ewald energy   TEWEN  =     -1086.26724324
  -Hartree energ DENC   =     -1024.31100298
  -exchange      EXHF   =         0.00000000
  -V(xc)+E(xc)   XCENC  =       132.97018794
  PAW double counting   =      1761.51743572    -1708.19287285
  entropy T*S    EENTRO =        -0.00000000
  eigenvalues    EBANDS =      -550.73215122
  atomic energy  EATOM  =      2369.09209771
  ---------------------------------------------------
  free energy    TOTEN  =       -50.39845675 eV

  energy without entropy =      -50.39845675  energy(sigma->0) =      -50.39845675


--------------------------------------------------------------------------------------------------------




--------------------------------------- Iteration      1(   3)  ---------------------------------------


    TRIAL :  cpu time      2.3036: real time      2.3045
    CORREC:  cpu time      0.0004: real time      0.0004
    --------------------------------------------
      LOOP:  cpu time      2.3187: real time      2.3342

 eigenvalue-minimisations  :  5600
 total energy-change (2. order) :-0.7070119E+02  (-0.6984426E+02)
 number of electron      60.0000000 magnetization 
 augmentation part       60.0000000 magnetization 

 Free energy of the ion-electron system (eV)
  ---------------------------------------------------
  alpha Z        PSCENC =        55.52509218
  Ewald energy   TEWEN  =     -1086.26724324
  -Hartree energ DENC   =     -1024.31100298
  -exchange      EXHF   =         0.00000000
  -V(xc)+E(xc)   XCENC  =       132.97018794
  PAW double counting   =      1761.51743572    -1708.19287285
  entropy T*S    EENTRO =        -0.00000000
  eigenvalues    EBANDS =      -621.43334438
  atomic energy  EATOM  =      2369.09209771
  ---------------------------------------------------
  free energy    TOTEN  =      -121.09964991 eV

  energy without entropy =     -121.09964991  energy(sigma->0) =     -121.09964991


--------------------------------------------------------------------------------------------------------




--------------------------------------- Iteration      1(   4)  ---------------------------------------


    TRIAL :  cpu time      2.5082: real time      2.5099
    CORREC:  cpu time      0.0004: real time      0.0004
    --------------------------------------------
      LOOP:  cpu time      2.5208: real time      2.5389

 eigenvalue-minimisations  :  6480
 total energy-change (2. order) :-0.2501030E+01  (-0.2491033E+01)
 number of electron      60.0000000 magnetization 
 augmentation part       60.0000000 magnetization 

 Free energy of the ion-electron system (eV)
  ---------------------------------------------------
  alpha Z        PSCENC =        55.52509218
  Ewald energy   TEWEN  =     -1086.26724324
  -Hartree energ DENC   =     -1024.31100298
  -exchange      EXHF   =         0.00000000
  -V(xc)+E(xc)   XCENC  =       132.97018794
  PAW double counting   =      1761.51743572    -1708.19287285
  entropy T*S    EENTRO =        -0.00000000
  eigenvalues    EBANDS =      -623.93437433
  atomic energy  EATOM  =      2369.09209771
  ---------------------------------------------------
  free energy    TOTEN  =      -123.60067986 eV

  energy without entropy =     -123.60067986  energy(sigma->0) =     -123.60067986


--------------------------------------------------------------------------------------------------------




--------------------------------------- Iteration      1(   5)  ---------------------------------------


    TRIAL :  cpu time      2.4166: real time      2.4177
    CORREC:  cpu time      0.0004: real time      0.0004
    CHARGE:  cpu time      0.1107: real time      0.1119
    --------------------------------------------
      LOOP:  cpu time      2.5438: real time      2.5595

 eigenvalue-minimisations  :  6116
 total energy-change (2. order) :-0.6848472E-01  (-0.6845100E-01)
 number of electron      59.9999999 magnetization 
 augmentation part       -0.1405323 magnetization 

 Free energy of the ion-electron system (eV)
  ---------------------------------------------------
  alpha Z        PSCENC =        55.52509218
  Ewald energy   TEWEN  =     -1086.26724324
  -Hartree energ DENC   =     -1024.31100298
  -exchange      EXHF   =         0.00000000
  -V(xc)+E(xc)   XCENC  =       132.97018794
  PAW double counting   =      1761.51743572    -1708.19287285
  entropy T*S    EENTRO =        -0.00000000
  eigenvalues    EBANDS =      -624.00285905
  atomic energy  EATOM  =      2369.09209771
  ---------------------------------------------------
  free energy    TOTEN  =      -123.66916458 eV

  energy without entropy =     -123.66916458  energy(sigma->0) =     -123.66916458


--------------------------------------------------------------------------------------------------------




--------------------------------------- Iteration      1(   6)  ---------------------------------------


    POTLOK:  cpu time      0.3831: real time      0.3831
    SETDIJ:  cpu time      0.0658: real time      0.0658
    TRIAL :  cpu time      1.2870: real time      1.2885
    CORREC:  cpu time      1.3008: real time      1.3020
    CHARGE:  cpu time      0.1020: real time      0.1020
    --------------------------------------------
      LOOP:  cpu time      3.1547: real time      3.1709

 eigenvalue-minimisations  :     0
 total energy-change (2. order) : 0.1740314E+02  (-0.6372426E+01)
 number of electron      59.9999999 magnetization 
 augmentation part       -0.1650921 magnetization 

 Free energy of the ion-electron system (eV)
  ---------------------------------------------------
  alpha Z        PSCENC =        55.52509218
  Ewald energy   TEWEN  =     -1086.26724324
  -Hartree energ DENC   =     -1320.46577914
  -exchange      EXHF   =         0.00000000
  -V(xc)+E(xc)   XCENC  =       151.24839741
  PAW double counting   =     17386.33526369   -17335.48951716
  entropy T*S    EENTRO =        -0.00000000
  eigenvalues    EBANDS =      -326.24433501
  atomic energy  EATOM  =      2369.09209771
  ---------------------------------------------------
  free energy    TOTEN  =      -106.26602357 eV

  energy without entropy =     -106.26602357  energy(sigma->0) =     -106.26602357


--------------------------------------------------------------------------------------------------------




--------------------------------------- Iteration      1(   7)  ---------------------------------------


    POTLOK:  cpu time      0.3797: real time      0.3798
    SETDIJ:  cpu time      0.0657: real time      0.0657
    TRIAL :  cpu time      1.2671: real time      1.2674
    CORREC:  cpu time      1.2921: real time      1.2928
    CHARGE:  cpu time      0.1003: real time      0.1003
    --------------------------------------------
      LOOP:  cpu time      3.1324: real time      3.1336

 eigenvalue-minimisations  :     0
 total energy-change (2. order) :-0.6377862E+01  (-0.7137052E+00)
 number of electron      59.9999999 magnetization 
 augmentation part       -0.1841902 magnetization 

 Free energy of the ion-electron system (eV)
  ---------------------------------------------------
  alpha Z        PSCENC =        55.52509218
  Ewald energy   TEWEN  =     -1086.26724324
  -Hartree energ DENC   =     -1197.56585311
  -exchange      EXHF   =         0.00000000
  -V(xc)+E(xc)   XCENC  =       144.58764976
  PAW double counting   =     22411.16149908   -22359.32067451
  entropy T*S    EENTRO =        -0.00000000
  eigenvalues    EBANDS =      -449.85645340
  atomic energy  EATOM  =      2369.09209771
  ---------------------------------------------------
  free energy    TOTEN  =      -112.64388553 eV

  energy without entropy =     -112.64388553  energy(sigma->0) =     -112.64388553


--------------------------------------------------------------------------------------------------------




--------------------------------------- Iteration      1(   8)  ---------------------------------------


    POTLOK:  cpu time      0.3782: real time      0.3783
    SETDIJ:  cpu time      0.0656: real time      0.0656
    TRIAL :  cpu time      1.2583: real time      1.2588
    CORREC:  cpu time      1.2922: real time      1.2924
    CHARGE:  cpu time      0.1005: real time      0.1005
    --------------------------------------------
      LOOP:  cpu time      3.1133: real time      3.1249

 eigenvalue-minimisations  :     0
 total energy-change (2. order) :-0.7112599E+00  (-0.2416999E+00)
 number of electron      59.9999999 magnetization 
 augmentation part       -0.1837200 magnetization 

 Free energy of the ion-electron system (eV)
  ---------------------------------------------------
  alpha Z        PSCENC =        55.52509218
  Ewald energy   TEWEN  =     -1086.26724324
  -Hartree energ DENC   =     -1191.54228590
  -exchange      EXHF   =         0.00000000
  -V(xc)+E(xc)   XCENC  =       144.24895695
  PAW double counting   =     23790.43984057   -23738.44940144
  entropy T*S    EENTRO =        -0.00000000
  eigenvalues    EBANDS =      -456.40220228
  atomic energy  EATOM  =      2369.09209771
  ---------------------------------------------------
  free energy    TOTEN  =      -113.35514546 eV

  energy without entropy =     -113.35514546  energy(sigma->0) =     -113.35514546


--------------------------------------------------------------------------------------------------------




--------------------------------------- Iteration      1(   9)  ---------------------------------------


    POTLOK:  cpu time      0.3783: real time      0.3784
    SETDIJ:  cpu time      0.0686: real time      0.0686
    TRIAL :  cpu time      1.2561: real time      1.2567
    CORREC:  cpu time      1.3794: real time      1.3798
    CHARGE:  cpu time      0.1249: real time      0.1249
    --------------------------------------------
      LOOP:  cpu time      3.2199: real time      3.2381

 eigenvalue-minimisations  :     0
 total energy-change (2. order) :-0.2389830E+00  (-0.7699745E-01)
 number of electron      59.9999999 magnetization 
 augmentation part       -0.1822555 magnetization 

 Free energy of the ion-electron system (eV)
  ---------------------------------------------------
  alpha Z        PSCENC =        55.52509218
  Ewald energy   TEWEN  =     -1086.26724324
  -Hartree energ DENC   =     -1187.04065930
  -exchange      EXHF   =         0.00000000
  -V(xc)+E(xc)   XCENC  =       144.04094743
  PAW double counting   =     23974.56607713   -23922.52902010
  entropy T*S    EENTRO =        -0.00000000
  eigenvalues    EBANDS =      -460.98142028
  atomic energy  EATOM  =      2369.09209771
  ---------------------------------------------------
  free energy    TOTEN  =      -113.59412848 eV

  energy without entropy =     -113.59412848  energy(sigma->0) =     -113.59412848


--------------------------------------------------------------------------------------------------------




--------------------------------------- Iteration      1(  10)  ---------------------------------------


    POTLOK:  cpu time      0.4617: real time      0.4619
    SETDIJ:  cpu time      0.0692: real time      0.0692
    TRIAL :  cpu time      1.3731: real time      1.3734
    CORREC:  cpu time      1.2949: real time      1.2955
    CHARGE:  cpu time      0.1008: real time      0.1008
    --------------------------------------------
      LOOP:  cpu time      3.3243: real time      3.3307

 eigenvalue-minimisations  :     0
 total energy-change (2. order) :-0.7646574E-01  (-0.1775894E-01)
 number of electron      59.9999999 magnetization 
 augmentation part       -0.1818463 magnetization 

 Free energy of the ion-electron system (eV)
  ---------------------------------------------------
  alpha Z        PSCENC =        55.52509218
  Ewald energy   TEWEN  =     -1086.26724324
  -Hartree energ DENC   =     -1183.86406280
  -exchange      EXHF   =         0.00000000
  -V(xc)+E(xc)   XCENC  =       143.88908883
  PAW double counting   =     23500.05463549   -23448.02490269
  entropy T*S    EENTRO =        -0.00000000
  eigenvalues    EBANDS =      -464.07529970
  atomic energy  EATOM  =      2369.09209771
  ---------------------------------------------------
  free energy    TOTEN  =      -113.67059422 eV

  energy without entropy =     -113.67059422  energy(sigma->0) =     -113.67059422


--------------------------------------------------------------------------------------------------------




--------------------------------------- Iteration      1(  11)  ---------------------------------------


    POTLOK:  cpu time      0.3781: real time      0.3781
    SETDIJ:  cpu time      0.0657: real time      0.0657
    TRIAL :  cpu time      1.3199: real time      1.3203
    CORREC:  cpu time      1.2935: real time      1.2940
    CHARGE:  cpu time      0.1004: real time      0.1004
    --------------------------------------------
      LOOP:  cpu time      3.1702: real time      3.1867

 eigenvalue-minimisations  :     0
 total energy-change (2. order) :-0.1773576E-01  (-0.3497245E-02)
 number of electron      59.9999999 magnetization 
 augmentation part       -0.1817370 magnetization 

 Free energy of the ion-electron system (eV)
  ---------------------------------------------------
  alpha Z        PSCENC =        55.52509218
  Ewald energy   TEWEN  =     -1086.26724324
  -Hartree energ DENC   =     -1184.06915501
  -exchange      EXHF   =         0.00000000
  -V(xc)+E(xc)   XCENC  =       143.86872050
  PAW double counting   =     23193.31680209   -23141.30681299
  entropy T*S    EENTRO =        -0.00000000
  eigenvalues    EBANDS =      -463.84783123
  atomic energy  EATOM  =      2369.09209771
  ---------------------------------------------------
  free energy    TOTEN  =      -113.68832998 eV

  energy without entropy =     -113.68832998  energy(sigma->0) =     -113.68832998


--------------------------------------------------------------------------------------------------------




--------------------------------------- Iteration      1(  12)  ---------------------------------------


    POTLOK:  cpu time      0.3793: real time      0.3793
    SETDIJ:  cpu time      0.0658: real time      0.0658
    TRIAL :  cpu time      1.2574: real time      1.2577
    CORREC:  cpu time      1.2897: real time      1.2905
    CHARGE:  cpu time      0.1006: real time      0.1006
    --------------------------------------------
      LOOP:  cpu time      3.1203: real time      3.1216

 eigenvalue-minimisations  :     0
 total energy-change (2. order) :-0.3495323E-02  (-0.7904673E-03)
 number of electron      59.9999999 magnetization 
 augmentation part       -0.1818239 magnetization 

 Free energy of the ion-electron system (eV)
  ---------------------------------------------------
  alpha Z        PSCENC =        55.52509218
  Ewald energy   TEWEN  =     -1086.26724324
  -Hartree energ DENC   =     -1183.94386373
  -exchange      EXHF   =         0.00000000
  -V(xc)+E(xc)   XCENC  =       143.84549837
  PAW double counting   =     23167.96660370   -23115.96039289
  entropy T*S    EENTRO =        -0.00000000
  eigenvalues    EBANDS =      -463.94961740
  atomic energy  EATOM  =      2369.09209771
  ---------------------------------------------------
  free energy    TOTEN  =      -113.69182531 eV

  energy without entropy =     -113.69182531  energy(sigma->0) =     -113.69182531


--------------------------------------------------------------------------------------------------------




--------------------------------------- Iteration      1(  13)  ---------------------------------------


    POTLOK:  cpu time      0.3796: real time      0.3796
    SETDIJ:  cpu time      0.0658: real time      0.0658
    TRIAL :  cpu time      1.2593: real time      1.2600
    CORREC:  cpu time      1.2962: real time      1.2966
    CHARGE:  cpu time      0.1018: real time      0.1018
    --------------------------------------------
      LOOP:  cpu time      3.1157: real time      3.1327

 eigenvalue-minimisations  :     0
 total energy-change (2. order) :-0.7892187E-03  (-0.1821966E-03)
 number of electron      59.9999999 magnetization 
 augmentation part       -0.1818293 magnetization 

 Free energy of the ion-electron system (eV)
  ---------------------------------------------------
  alpha Z        PSCENC =        55.52509218
  Ewald energy   TEWEN  =     -1086.26724324
  -Hartree energ DENC   =     -1184.04297773
  -exchange      EXHF   =         0.00000000
  -V(xc)+E(xc)   XCENC  =       143.84949952
  PAW double counting   =     23192.34125560   -23140.33637594
  entropy T*S    EENTRO =        -0.00000000
  eigenvalues    EBANDS =      -463.85396260
  atomic energy  EATOM  =      2369.09209771
  ---------------------------------------------------
  free energy    TOTEN  =      -113.69261452 eV

  energy without entropy =     -113.69261452  energy(sigma->0) =     -113.69261452


--------------------------------------------------------------------------------------------------------




--------------------------------------- Iteration      1(  14)  ---------------------------------------


    POTLOK:  cpu time      0.3782: real time      0.3782
    SETDIJ:  cpu time      0.0658: real time      0.0658
    TRIAL :  cpu time      1.2717: real time      1.2723
    CORREC:  cpu time      1.4203: real time      1.4207
    CHARGE:  cpu time      0.1147: real time      0.1148
    --------------------------------------------
      LOOP:  cpu time      3.2642: real time      3.2812

 eigenvalue-minimisations  :     0
 total energy-change (2. order) :-0.1820246E-03  (-0.4525589E-04)
 number of electron      59.9999999 magnetization 
 augmentation part       -0.1817917 magnetization 

 Free energy of the ion-electron system (eV)
  ---------------------------------------------------
  alpha Z        PSCENC =        55.52509218
  Ewald energy   TEWEN  =     -1086.26724324
  -Hartree energ DENC   =     -1184.13353330
  -exchange      EXHF   =         0.00000000
  -V(xc)+E(xc)   XCENC  =       143.85412786
  PAW double counting   =     23205.74510580   -23153.74047297
  entropy T*S    EENTRO =        -0.00000000
  eigenvalues    EBANDS =      -463.76797058
  atomic energy  EATOM  =      2369.09209771
  ---------------------------------------------------
  free energy    TOTEN  =      -113.69279655 eV

  energy without entropy =     -113.69279655  energy(sigma->0) =     -113.69279655


--------------------------------------------------------------------------------------------------------




--------------------------------------- Iteration      1(  15)  ---------------------------------------


    POTLOK:  cpu time      0.4225: real time      0.4227
    SETDIJ:  cpu time      0.0660: real time      0.0660
    TRIAL :  cpu time      1.3087: real time      1.3090
    CORREC:  cpu time      1.2897: real time      1.2901
    CHARGE:  cpu time      0.1012: real time      0.1012
    --------------------------------------------
      LOOP:  cpu time      3.2181: real time      3.2192

 eigenvalue-minimisations  :     0
 total energy-change (2. order) :-0.4564302E-04  (-0.1130249E-04)
 number of electron      59.9999999 magnetization 
 augmentation part       -0.1817628 magnetization 

 Free energy of the ion-electron system (eV)
  ---------------------------------------------------
  alpha Z        PSCENC =        55.52509218
  Ewald energy   TEWEN  =     -1086.26724324
  -Hartree energ DENC   =     -1184.15088669
  -exchange      EXHF   =         0.00000000
  -V(xc)+E(xc)   XCENC  =       143.85475070
  PAW double counting   =     23207.66710545   -23155.66222641
  entropy T*S    EENTRO =        -0.00000000
  eigenvalues    EBANDS =      -463.75153188
  atomic energy  EATOM  =      2369.09209771
  ---------------------------------------------------
  free energy    TOTEN  =      -113.69284219 eV

  energy without entropy =     -113.69284219  energy(sigma->0) =     -113.69284219


--------------------------------------------------------------------------------------------------------




--------------------------------------- Iteration      1(  16)  ---------------------------------------


    POTLOK:  cpu time      0.3810: real time      0.3812
    SETDIJ:  cpu time      0.0657: real time      0.0657
    TRIAL :  cpu time      1.2579: real time      1.2583
    CORREC:  cpu time      1.3075: real time      1.3079
    CHARGE:  cpu time      0.1028: real time      0.1030
    --------------------------------------------
      LOOP:  cpu time      3.1288: real time      3.1455

 eigenvalue-minimisations  :     0
 total energy-change (2. order) :-0.1145515E-04  (-0.2998670E-05)
 number of electron      59.9999999 magnetization 
 augmentation part       -0.1817645 magnetization 

 Free energy of the ion-electron system (eV)
  ---------------------------------------------------
  alpha Z        PSCENC =        55.52509218
  Ewald energy   TEWEN  =     -1086.26724324
  -Hartree energ DENC   =     -1184.17408242
  -exchange      EXHF   =         0.00000000
  -V(xc)+E(xc)   XCENC  =       143.85619552
  PAW double counting   =     23206.44487998   -23154.44000772
  entropy T*S    EENTRO =        -0.00000000
  eigenvalues    EBANDS =      -463.72978566
  atomic energy  EATOM  =      2369.09209771
  ---------------------------------------------------
  free energy    TOTEN  =      -113.69285365 eV

  energy without entropy =     -113.69285365  energy(sigma->0) =     -113.69285365


--------------------------------------------------------------------------------------------------------




--------------------------------------- Iteration      1(  17)  ---------------------------------------


    POTLOK:  cpu time      0.3802: real time      0.3802
    SETDIJ:  cpu time      0.0657: real time      0.0657
    TRIAL :  cpu time      1.2562: real time      1.2564
    CORREC:  cpu time      1.2902: real time      1.2909
    CHARGE:  cpu time      0.0999: real time      0.0999
    --------------------------------------------
      LOOP:  cpu time      3.1061: real time      3.1227

 eigenvalue-minimisations  :     0
 total energy-change (2. order) :-0.3016990E-05  (-0.8685690E-06)
 number of electron      59.9999999 magnetization 
 augmentation part       -0.1817695 magnetization 

 Free energy of the ion-electron system (eV)
  ---------------------------------------------------
  alpha Z        PSCENC =        55.52509218
  Ewald energy   TEWEN  =     -1086.26724324
  -Hartree energ DENC   =     -1184.17447873
  -exchange      EXHF   =         0.00000000
  -V(xc)+E(xc)   XCENC  =       143.85637862
  PAW double counting   =     23207.25986212   -23155.25491041
  entropy T*S    EENTRO =        -0.00000000
  eigenvalues    EBANDS =      -463.72965491
  atomic energy  EATOM  =      2369.09209771
  ---------------------------------------------------
  free energy    TOTEN  =      -113.69285666 eV

  energy without entropy =     -113.69285666  energy(sigma->0) =     -113.69285666


--------------------------------------------------------------------------------------------------------




--------------------------------------- Iteration      1(  18)  ---------------------------------------


    POTLOK:  cpu time      0.3783: real time      0.3783
    SETDIJ:  cpu time      0.0657: real time      0.0657
    TRIAL :  cpu time      1.2570: real time      1.2573
    CORREC:  cpu time      1.2901: real time      1.2908
    CHARGE:  cpu time      0.1009: real time      0.1009
    --------------------------------------------
      LOOP:  cpu time      3.1221: real time      3.1233

 eigenvalue-minimisations  :     0
 total energy-change (2. order) :-0.8421739E-06  (-0.2324584E-06)
 number of electron      59.9999999 magnetization 
 augmentation part       -0.1817706 magnetization 

 Free energy of the ion-electron system (eV)
  ---------------------------------------------------
  alpha Z        PSCENC =        55.52509218
  Ewald energy   TEWEN  =     -1086.26724324
  -Hartree energ DENC   =     -1184.17518043
  -exchange      EXHF   =         0.00000000
  -V(xc)+E(xc)   XCENC  =       143.85642105
  PAW double counting   =     23208.24563767   -23156.24065944
  entropy T*S    EENTRO =        -0.00000000
  eigenvalues    EBANDS =      -463.72902300
  atomic energy  EATOM  =      2369.09209771
  ---------------------------------------------------
  free energy    TOTEN  =      -113.69285751 eV

  energy without entropy =     -113.69285751  energy(sigma->0) =     -113.69285751


--------------------------------------------------------------------------------------------------------




--------------------------------------- Iteration      1(  19)  ---------------------------------------


    POTLOK:  cpu time      0.3835: real time      0.3835
    SETDIJ:  cpu time      0.0658: real time      0.0658
    TRIAL :  cpu time      1.2556: real time      1.2561
    CORREC:  cpu time      1.2946: real time      1.2950
    CHARGE:  cpu time      0.1000: real time      0.1000
    --------------------------------------------
      LOOP:  cpu time      3.1146: real time      3.1309

 eigenvalue-minimisations  :     0
 total energy-change (2. order) :-0.2267334E-06  (-0.7314254E-07)
 number of electron      59.9999999 magnetization 
 augmentation part       -0.1817700 magnetization 

 Free energy of the ion-electron system (eV)
  ---------------------------------------------------
  alpha Z        PSCENC =        55.52509218
  Ewald energy   TEWEN  =     -1086.26724324
  -Hartree energ DENC   =     -1184.17293627
  -exchange      EXHF   =         0.00000000
  -V(xc)+E(xc)   XCENC  =       143.85633326
  PAW double counting   =     23208.35221315   -23156.34723724
  entropy T*S    EENTRO =        -0.00000000
  eigenvalues    EBANDS =      -463.73117728
  atomic energy  EATOM  =      2369.09209771
  ---------------------------------------------------
  free energy    TOTEN  =      -113.69285773 eV

  energy without entropy =     -113.69285773  energy(sigma->0) =     -113.69285773


--------------------------------------------------------------------------------------------------------




--------------------------------------- Iteration      1(  20)  ---------------------------------------


    POTLOK:  cpu time      0.3808: real time      0.3808
    SETDIJ:  cpu time      0.0658: real time      0.0658
    TRIAL :  cpu time      1.2570: real time      1.2575
    CORREC:  cpu time      1.3042: real time      1.3046
    EDDIAG:  cpu time      0.7803: real time      0.7811
    CHARGE:  cpu time      0.0999: real time      0.0999
    --------------------------------------------
      LOOP:  cpu time      3.9008: real time      3.9196

 eigenvalue-minimisations  :     0
 total energy-change (2. order) :-0.6593837E-07  (-0.1322914E-07)
 number of electron      59.9999999 magnetization 
 augmentation part       -0.1817704 magnetization 

 Free energy of the ion-electron system (eV)
  ---------------------------------------------------
  alpha Z        PSCENC =        55.52509218
  Ewald energy   TEWEN  =     -1086.26724324
  -Hartree energ DENC   =     -1184.17354252
  -exchange      EXHF   =         0.00000000
  -V(xc)+E(xc)   XCENC  =       143.85634415
  PAW double counting   =     23207.99401202   -23155.98905764
  entropy T*S    EENTRO =        -0.00000000
  eigenvalues    EBANDS =      -463.73056046
  atomic energy  EATOM  =      2369.09209771
  ---------------------------------------------------
  free energy    TOTEN  =      -113.69285780 eV

  energy without entropy =     -113.69285780  energy(sigma->0) =     -113.69285780


--------------------------------------------------------------------------------------------------------


  average scaling for gradient   0.9150


 average (electrostatic) potential at core
  the test charge radii are     0.5902  0.5770  0.4325
  (the norm of the test charge is              1.0000)
       1 -99.1560       2 -99.1587       3 -99.1588       4 -99.1560       5 -82.7315
       6 -82.7316       7 -82.7323       8 -82.7324       9 -82.7324      10 -82.7310
      11 -82.7316      12 -82.7327      13 -41.2943      14 -41.2944      15 -41.2946
      16 -41.2945      17 -41.2950      18 -41.2930      19 -41.2933      20 -41.2964



 E-fermi :   0.0709     XC(G=0):  -8.0594     alpha+bet : -7.0301

 Fermi energy:         0.0709093614

 k-point     1 :       0.0000    0.0000    0.0000
  band No.  band energies     occupation 
      1     -19.2876      2.00000
      2     -19.2197      2.00000
      3     -17.4365      2.00000
      4     -17.3244      2.00000
      5     -13.9825      2.00000
      6     -13.8894      2.00000
      7     -11.1647      2.00000
      8     -11.0245      2.00000
      9     -10.9811      2.00000
     10     -10.7573      2.00000
     11      -8.1698      2.00000
[...]
     44       9.6999      0.00000

 k-point    47 :       0.3333   -0.2000   -0.4286
  band No.  band energies     occupation 
      1     -19.1586      2.00000
      2     -19.1522      2.00000
      3     -17.3165      2.00000
      4     -17.3062      2.00000
      5     -13.9525      2.00000
      6     -13.9426      2.00000
      7     -10.9961      2.00000
      8     -10.9687      2.00000
      9     -10.8906      2.00000
     10     -10.8689      2.00000
     11      -7.6249      2.00000
     12      -7.5312      2.00000
     13      -7.3849      2.00000
     14      -7.3754      2.00000
     15      -6.6138      2.00000
     16      -6.5696      2.00000
     17      -5.7106      2.00000
     18      -5.6673      2.00000
     19      -5.3382      2.00000
     20      -5.2466      2.00000
     21      -4.1347      2.00000
     22      -4.0606      2.00000
     23      -3.2564      2.00000
     24      -3.2490      2.00000
     25      -2.1448      2.00000
     26      -2.0938      2.00000
     27      -1.7281      2.00000
     28      -1.7037      2.00000
     29      -0.6574      2.00000
     30      -0.5353      2.00000
     31       2.6073      0.00000
     32       2.6231      0.00000
     33       3.4496      0.00000
     34       3.4899      0.00000
     35       6.6886      0.00000
     36       6.9139      0.00000
     37       6.9869      0.00000
     38       7.0789      0.00000
     39       7.9760      0.00000
     40       8.0126      0.00000
     41       8.6830      0.00000
     42       9.1757      0.00000
     43       9.3173      0.00000
     44       9.6502      0.00000

 k-point    48 :       0.0000    0.4000    0.4286
  band No.  band energies     occupation 
      1     -19.1549      2.00000
      2     -19.1500      2.00000
      3     -17.3136      2.00000
      4     -17.3058      2.00000
      5     -13.9825      2.00000
      6     -13.9753      2.00000
      7     -10.9407      2.00000
      8     -10.9228      2.00000
      9     -10.9200      2.00000
     10     -10.9038      2.00000
     11      -7.5411      2.00000
     12      -7.4763      2.00000
     13      -7.3996      2.00000
     14      -7.3769      2.00000
     15      -6.5279      2.00000
     16      -6.4791      2.00000
     17      -5.8178      2.00000
     18      -5.7883      2.00000
     19      -5.2857      2.00000
     20      -5.2315      2.00000
     21      -4.2611      2.00000
     22      -4.2126      2.00000
     23      -3.2194      2.00000
     24      -3.2041      2.00000
     25      -2.1095      2.00000
     26      -2.0815      2.00000
     27      -1.6738      2.00000
     28      -1.6562      2.00000
     29      -0.6624      2.00000
     30      -0.5685      2.00000
     31       2.5285      0.00000
     32       2.5336      0.00000
     33       3.5821      0.00000
     34       3.6160      0.00000
     35       6.5205      0.00000
     36       6.6937      0.00000
     37       6.7814      0.00000
     38       6.8074      0.00000
     39       8.0724      0.00000
     40       8.1675      0.00000
     41       8.9646      0.00000
     42       9.1997      0.00000
     43       9.5010      0.00000
     44       9.5992      0.00000

 k-point    49 :       0.0000   -0.4000    0.4286
  band No.  band energies     occupation 
      1     -19.1549      2.00000
      2     -19.1500      2.00000
      3     -17.3136      2.00000
      4     -17.3058      2.00000
      5     -13.9826      2.00000
      6     -13.9753      2.00000
      7     -10.9406      2.00000
      8     -10.9228      2.00000
      9     -10.9199      2.00000
     10     -10.9039      2.00000
     11      -7.5411      2.00000
     12      -7.4763      2.00000
     13      -7.3995      2.00000
     14      -7.3770      2.00000
     15      -6.5280      2.00000
     16      -6.4790      2.00000
     17      -5.8178      2.00000
     18      -5.7883      2.00000
     19      -5.2858      2.00000
     20      -5.2314      2.00000
     21      -4.2607      2.00000
     22      -4.2130      2.00000
     23      -3.2196      2.00000
     24      -3.2039      2.00000
     25      -2.1096      2.00000
     26      -2.0814      2.00000
     27      -1.6736      2.00000
     28      -1.6564      2.00000
     29      -0.6625      2.00000
     30      -0.5685      2.00000
     31       2.5288      0.00000
     32       2.5334      0.00000
     33       3.5821      0.00000
     34       3.6161      0.00000
     35       6.5205      0.00000
     36       6.6937      0.00000
     37       6.7814      0.00000
     38       6.8074      0.00000
     39       8.0754      0.00000
     40       8.1653      0.00000
     41       8.9712      0.00000
     42       9.1260      0.00000
     43       9.4337      0.00000
     44       9.5734      0.00000

 k-point    50 :       0.3333    0.4000    0.4286
  band No.  band energies     occupation 
      1     -19.1536      2.00000
      2     -19.1512      2.00000
      3     -17.3117      2.00000
      4     -17.3078      2.00000
      5     -13.9811      2.00000
      6     -13.9764      2.00000
      7     -10.9524      2.00000
      8     -10.9329      2.00000
      9     -10.9044      2.00000
     10     -10.8955      2.00000
     11      -7.5449      2.00000
     12      -7.5118      2.00000
     13      -7.3986      2.00000
     14      -7.3888      2.00000
     15      -6.4776      2.00000
     16      -6.4598      2.00000
     17      -5.7519      2.00000
     18      -5.7242      2.00000
     19      -5.3998      2.00000
     20      -5.3478      2.00000
     21      -4.1713      2.00000
     22      -4.1234      2.00000
     23      -3.2513      2.00000
     24      -3.2429      2.00000
     25      -2.2170      2.00000
     26      -2.1819      2.00000
     27      -1.6174      2.00000
     28      -1.6053      2.00000
     29      -0.5915      2.00000
     30      -0.5429      2.00000
     31       2.5361      0.00000
     32       2.5449      0.00000
     33       3.5676      0.00000
     34       3.5846      0.00000
     35       6.6015      0.00000
     36       6.7502      0.00000
     37       6.7891      0.00000
     38       6.8003      0.00000
     39       7.9902      0.00000
     40       8.0998      0.00000
     41       8.4378      0.00000
     42       8.8593      0.00000
     43       9.0895      0.00000
     44       9.2568      0.00000

 k-point    51 :      -0.3333   -0.4000    0.4286
  band No.  band energies     occupation 
      1     -19.1536      2.00000
      2     -19.1512      2.00000
      3     -17.3117      2.00000
      4     -17.3078      2.00000
      5     -13.9812      2.00000
      6     -13.9763      2.00000
      7     -10.9521      2.00000
      8     -10.9331      2.00000
      9     -10.9045      2.00000
     10     -10.8954      2.00000
     11      -7.5449      2.00000
     12      -7.5118      2.00000
     13      -7.3985      2.00000
     14      -7.3888      2.00000
     15      -6.4777      2.00000
     16      -6.4597      2.00000
     17      -5.7518      2.00000
     18      -5.7242      2.00000
     19      -5.3999      2.00000
     20      -5.3477      2.00000
     21      -4.1708      2.00000
     22      -4.1238      2.00000
     23      -3.2515      2.00000
     24      -3.2428      2.00000
     25      -2.2171      2.00000
     26      -2.1819      2.00000
     27      -1.6173      2.00000
     28      -1.6054      2.00000
     29      -0.5916      2.00000
     30      -0.5428      2.00000
     31       2.5363      0.00000
     32       2.5446      0.00000
     33       3.5675      0.00000
     34       3.5847      0.00000
     35       6.6015      0.00000
     36       6.7502      0.00000
     37       6.7890      0.00000
     38       6.8003      0.00000
     39       7.9906      0.00000
     40       8.1006      0.00000
     41       8.4384      0.00000
     42       8.8492      0.00000
     43       9.0896      0.00000
     44       9.2766      0.00000

 k-point    52 :      -0.3333    0.4000   -0.4286
  band No.  band energies     occupation 
      1     -19.1536      2.00000
      2     -19.1512      2.00000
      3     -17.3117      2.00000
      4     -17.3078      2.00000
      5     -13.9812      2.00000
      6     -13.9763      2.00000
      7     -10.9521      2.00000
      8     -10.9332      2.00000
      9     -10.9046      2.00000
     10     -10.8953      2.00000
     11      -7.5449      2.00000
     12      -7.5119      2.00000
     13      -7.3985      2.00000
     14      -7.3888      2.00000
     15      -6.4777      2.00000
     16      -6.4597      2.00000
     17      -5.7518      2.00000
     18      -5.7242      2.00000
     19      -5.3998      2.00000
     20      -5.3477      2.00000
     21      -4.1709      2.00000
     22      -4.1238      2.00000
     23      -3.2515      2.00000
     24      -3.2428      2.00000
     25      -2.2171      2.00000
     26      -2.1819      2.00000
     27      -1.6173      2.00000
     28      -1.6054      2.00000
     29      -0.5916      2.00000
     30      -0.5428      2.00000
     31       2.5363      0.00000
     32       2.5446      0.00000
     33       3.5676      0.00000
     34       3.5847      0.00000
     35       6.6015      0.00000
     36       6.7502      0.00000
     37       6.7891      0.00000
     38       6.8002      0.00000
     39       7.9913      0.00000
     40       8.0995      0.00000
     41       8.4391      0.00000
     42       8.8616      0.00000
     43       9.1333      0.00000
     44       9.2480      0.00000

 k-point    53 :       0.3333   -0.4000   -0.4286
  band No.  band energies     occupation 
      1     -19.1536      2.00000
      2     -19.1512      2.00000
      3     -17.3117      2.00000
      4     -17.3078      2.00000
      5     -13.9811      2.00000
      6     -13.9764      2.00000
      7     -10.9524      2.00000
      8     -10.9329      2.00000
      9     -10.9044      2.00000
     10     -10.8956      2.00000
     11      -7.5449      2.00000
     12      -7.5118      2.00000
     13      -7.3986      2.00000
     14      -7.3888      2.00000
     15      -6.4776      2.00000
     16      -6.4598      2.00000
     17      -5.7519      2.00000
     18      -5.7242      2.00000
     19      -5.3998      2.00000
     20      -5.3478      2.00000
     21      -4.1712      2.00000
     22      -4.1234      2.00000
     23      -3.2513      2.00000
     24      -3.2429      2.00000
     25      -2.2170      2.00000
     26      -2.1819      2.00000
     27      -1.6174      2.00000
     28      -1.6053      2.00000
     29      -0.5915      2.00000
     30      -0.5429      2.00000
     31       2.5361      0.00000
     32       2.5449      0.00000
     33       3.5676      0.00000
     34       3.5846      0.00000
     35       6.6015      0.00000
     36       6.7502      0.00000
     37       6.7891      0.00000
     38       6.8003      0.00000
     39       7.9905      0.00000
     40       8.1016      0.00000
     41       8.4447      0.00000
     42       8.8629      0.00000
     43       9.0854      0.00000
     44       9.2634      0.00000


--------------------------------------------------------------------------------------------------------


 soft charge-density along one line, spin component           1
         0         1         2         3         4         5         6         7         8         9
 total charge-density along one line

 pseudopotential strength for first ion, spin component:           1
 19.865  27.822  -0.000   0.000  -0.071  -0.000   0.000  -0.106
 27.822  38.967  -0.000   0.000  -0.100  -0.000   0.000  -0.148
 -0.000  -0.000  -5.799   0.001  -0.000  -8.701   0.001  -0.000
  0.000   0.000   0.001  -5.800  -0.000   0.001  -8.703  -0.000
 -0.071  -0.100  -0.000  -0.000  -5.778  -0.000  -0.000  -8.669
 -0.000  -0.000  -8.701   0.001  -0.000 -13.037   0.001  -0.000
  0.000   0.000   0.001  -8.703  -0.000   0.001 -13.039  -0.000
 -0.106  -0.148  -0.000  -0.000  -8.669  -0.000  -0.000 -12.988
 total augmentation occupancy for first ion, spin component:           1
 10.723  -5.174   0.000   0.000  -4.624  -0.000   0.000   2.154
 -5.174   2.791  -0.000  -0.000   2.973   0.000  -0.000  -1.213
  0.000  -0.000   8.124   1.978   0.000  -3.410  -0.991  -0.000
  0.000  -0.000   1.978   4.528   0.000  -0.991  -1.607  -0.000
 -4.624   2.973   0.000   0.000   5.621  -0.000  -0.000  -1.928
 -0.000   0.000  -3.410  -0.991  -0.000   1.460   0.477   0.000
  0.000  -0.000  -0.991  -1.607  -0.000   0.477   0.591   0.000
  2.154  -1.213  -0.000  -0.000  -1.928   0.000   0.000   0.759


------------------------ aborting loop because EDIFF is reached ----------------------------------------


    FORLOC:  cpu time      0.0026: real time      0.0026
    FORNL :  cpu time      0.2824: real time      0.2827
    FORCOR:  cpu time      0.4447: real time      0.4455
    OFIELD:  cpu time      0.0021: real time      0.0022

 VOLUME and BASIS-vectors are now :
 -----------------------------------------------------------------------------
  energy-cutoff  :     1000.00
  volume of cell :      203.64
      direct lattice vectors                 reciprocal lattice vectors
     9.325000000  0.000000000  0.000000000     0.107238606  0.000000000  0.000000000
     0.000000000  5.850000000  0.000000000     0.000000000  0.170940171  0.000000000
     0.000000000  0.000000000  3.733000000     0.000000000  0.000000000  0.267881061

  length of vectors
     9.325000000  5.850000000  3.733000000     0.107238606  0.170940171  0.267881061


 FORCES acting on ions:
    Electron-Ion                     Ewald-Force                    Non-Local-Force
 -----------------------------------------------------------------------------------------------
   -.182E+03 0.233E-02 0.380E-03   0.218E+03 -.168E-02 -.193E-02   -.360E+02 0.529E-03 0.425E-03
   0.182E+03 -.232E-02 -.384E-03   -.218E+03 0.347E-02 -.431E-04   0.360E+02 -.529E-03 -.425E-03
   -.182E+03 0.786E-03 -.367E-02   0.218E+03 -.103E-01 0.532E-02   -.360E+02 -.132E-02 0.935E-03
   0.182E+03 -.146E-01 0.630E-02   -.218E+03 0.851E-02 -.476E-02   0.360E+02 0.132E-02 -.935E-03
   -.437E+02 -.130E+03 -.435E+02   0.417E+02 0.135E+03 0.455E+02   0.218E+01 -.411E+01 -.193E+01
   -.437E+02 0.130E+03 0.435E+02   0.417E+02 -.135E+03 -.455E+02   0.218E+01 0.411E+01 0.193E+01
   0.437E+02 -.130E+03 -.435E+02   -.417E+02 0.135E+03 0.455E+02   -.218E+01 -.411E+01 -.193E+01
   0.437E+02 0.130E+03 0.435E+02   -.417E+02 -.135E+03 -.455E+02   -.218E+01 0.411E+01 0.193E+01
   -.437E+02 0.130E+03 -.435E+02   0.417E+02 -.135E+03 0.455E+02   0.219E+01 0.411E+01 -.193E+01
   0.437E+02 0.130E+03 -.435E+02   -.417E+02 -.135E+03 0.455E+02   -.218E+01 0.410E+01 -.193E+01
   0.437E+02 -.130E+03 0.435E+02   -.417E+02 0.135E+03 -.455E+02   -.219E+01 -.411E+01 0.193E+01
   -.437E+02 -.130E+03 0.435E+02   0.417E+02 0.135E+03 -.455E+02   0.218E+01 -.410E+01 0.193E+01
   -.206E+02 -.436E+02 -.169E+02   0.238E+02 0.482E+02 0.190E+02   -.321E+01 -.469E+01 -.217E+01
   -.206E+02 0.436E+02 0.169E+02   0.238E+02 -.482E+02 -.190E+02   -.321E+01 0.469E+01 0.217E+01
   0.206E+02 -.436E+02 -.169E+02   -.238E+02 0.482E+02 0.190E+02   0.321E+01 -.469E+01 -.217E+01
   0.206E+02 0.436E+02 0.169E+02   -.238E+02 -.482E+02 -.190E+02   0.321E+01 0.469E+01 0.217E+01
   -.206E+02 0.436E+02 -.169E+02   0.238E+02 -.482E+02 0.190E+02   -.321E+01 0.469E+01 -.217E+01
   0.206E+02 0.436E+02 -.169E+02   -.238E+02 -.482E+02 0.190E+02   0.321E+01 0.469E+01 -.217E+01
   0.206E+02 -.436E+02 0.169E+02   -.238E+02 0.482E+02 -.190E+02   0.321E+01 -.469E+01 0.217E+01
   -.206E+02 -.436E+02 0.169E+02   0.238E+02 0.482E+02 -.190E+02   -.321E+01 -.469E+01 0.217E+01
 -----------------------------------------------------------------------------------------------
   -.962E-01 -.199E-01 -.150E-01   0.103E-12 0.924E-13 -.284E-13   0.444E-15 0.000E+00 0.444E-15


 POSITION                                       TOTAL-FORCE (eV/Angst)
 -----------------------------------------------------------------------------------
      1.40499      5.84998      3.73298         0.286478      0.000273     -0.000143
      7.92001      0.00002      0.00002        -0.286478     -0.000273      0.000143
      6.06753      2.92509      1.86644         0.284903     -0.002967      0.000954
      3.25751      2.92492      1.86655        -0.284903      0.002967     -0.000954
      0.69837      1.04338      0.46255         0.093492      0.284411      0.110232
      0.69833      4.80661      3.27042         0.093265     -0.284473     -0.109939
      8.62667      1.04336      0.46258        -0.093265      0.284473      0.109939
      8.62664      4.80665      3.27047        -0.093492     -0.284411     -0.110232
      5.36087      1.88165      2.32904         0.098259     -0.283406      0.109835
      3.96423      1.88163      2.32910        -0.093998     -0.284722      0.110082
      3.96417      3.96836      1.40396        -0.098259      0.283406     -0.109835
      5.36082      3.96839      1.40390         0.093998      0.284722     -0.110082
      1.26653      1.89307      0.85086        -0.068034     -0.079007     -0.039937
      1.26646      3.95691      2.88208        -0.067949      0.078782      0.039983
      8.05853      1.89309      0.85095         0.067949     -0.078782     -0.039983
      8.05845      3.95691      2.88216         0.068034      0.079007      0.039937
      5.92917      1.03196      2.71734        -0.069294      0.079948     -0.040357
      3.39616      1.03191      2.71749         0.067325      0.078008     -0.039695
      3.39587      4.81806      1.01566         0.069294     -0.079948      0.040357
      5.92889      4.81810      1.01552        -0.067325     -0.078008      0.039695
 -----------------------------------------------------------------------------------
    total drift:                               -0.096239     -0.019888     -0.015042


--------------------------------------------------------------------------------------------------------



  FREE ENERGIE OF THE ION-ELECTRON SYSTEM (eV)
  ---------------------------------------------------
  free  energy   TOTEN  =      -113.69285780 eV

  energy  without entropy=     -113.69285780  energy(sigma->0) =     -113.69285780



--------------------------------------------------------------------------------------------------------


    POTLOK:  cpu time      0.4510: real time      0.4510


--------------------------------------------------------------------------------------------------------


 stress matrix after NEB project (eV)
      0.00000      0.00000      0.00000
      0.00000      0.00000      0.00000
      0.00000      0.00000      0.00000
  FORCES: max atom, RMS     0.319433    0.249139
  FORCE total and by dimension    1.114183    0.286478
  Stress total and by dimension    0.000000    0.000000
     LOOP+:  cpu time     65.1613: real time     65.4787
    4ORBIT:  cpu time      0.0000: real time      0.0000

 total amount of memory used by VASP MPI-rank0    41580. kBytes
=======================================================================

   base      :      30000. kBytes
   nonl-proj :       2728. kBytes
   fftplans  :        533. kBytes
   grid      :        819. kBytes
   one-center:          3. kBytes
   wavefun   :       7497. kBytes

  
  
 General timing and accounting informations for this job:
 ========================================================
  
                  Total CPU time used (sec):       87.207
                            User time (sec):       84.982
                          System time (sec):        2.225
                         Elapsed time (sec):       91.092
  
                   Maximum memory used (kb):      286312.
                   Average memory used (kb):          N/A
  
                          Minor page faults:       132773
                          Major page faults:          266
                 Voluntary context switches:         5859
