 vasp.6.4.1 05Apr23 (build Jun  6 2023 14:36:51) complex                         
 executed on        HPECrayEX_GCC date 2024.08.20  14:46:15
 running  256 mpi-ranks, with    1 threads/rank, on    2 nodes
 distrk:  each k-point on  128 cores,    2 groups
 distr:  one band on NCORE=  32 cores,    4 groups


--------------------------------------------------------------------------------------------------------


 INCAR:
   ALGO = Conjugate
   KPAR = 2
   NCORE = 32
   ISMEAR = 0
   SIGMA = 0.01
   PREC = Accurate
   EDIFF = 1E-7
   ENCUT = 1000
   ISIF = 0
   METAGGA = R2SCAN
   LASPH = .TRUE.
   SYMPREC = 1E-7
   LWAVE = .FALSE.
   LCHARG = .FALSE.
   LWAVE = .FALSE.
   LCHARGE = .FALSE.

 POTCAR:    PAW_PBE N_h 06Feb2004                 
 POTCAR:    PAW_PBE C_h 06Feb2004                 
 POTCAR:    PAW_PBE H_h 06Feb2004                 
 POTCAR:    PAW_PBE N_h 06Feb2004                 
   VRHFIN =N: s2p3                                                                                  
   LEXCH  = PE                                                                                      
   EATOM  =   264.5486 eV,   19.4438 Ry                                                             
                                                                                                    
   TITEL  = PAW_PBE N_h 06Feb2004                                                                   
   LULTRA =        F    use ultrasoft PP ?                                                          
   IUNSCR =        1    unscreen: 0-lin 1-nonlin 2-no                                               
   RPACOR =    0.800    partial core radius                                                         
   POMASS =   14.001; ZVAL   =    5.000    mass and valenz                                          
   RCORE  =    1.100    outmost cutoff radius                                                       
   RWIGS  =    1.480; RWIGS  =    0.783    wigner-seitz radius (au A)                               
   ENMAX  =  700.000; ENMIN  =  500.000 eV                                                          
   ICORE  =        2    local potential                                                             
   LCOR   =        T    correct aug charges                                                         
   LPAW   =        T    paw PP                                                                      
   EAUG   =  904.640                                                                                
   DEXC   =    0.000                                                                                
   RMAX   =    1.127    core radius for proj-oper                                                   
   RAUG   =    1.300    factor for augmentation sphere                                              
   RDEP   =    1.115    radius for radial grids                                                     
   RDEPT  =    1.106    core radius for aug-charge                                                  
                                                                                                    
   Atomic configuration                                                                             
    4 entries                                                                                       
     n  l   j            E        occ.                                                              
     1  0  0.50      -384.7179   2.0000                                                             
     2  0  0.50       -18.5828   2.0000                                                             
     2  1  0.50        -7.0898   3.0000                                                             
     3  2  1.50        -6.8029   0.0000                                                             
   Description                                                                                      
     l       E           TYP  RCUT    TYP  RCUT                                                     
     0    -18.5828117     23  1.100                                                                 
     0    -15.0750597     23  1.100                                                                 
     1     -7.0897851     23  1.100                                                                 
     1     -1.9663412     23  1.100                                                                 
     2     -6.8029130      7  1.100                                                                 
  local pseudopotential read in
  partial core-charges read in
  partial kinetic energy density read in
  kinetic energy density of atom read in
  atomic valenz-charges read in
  non local Contribution for L=           0  read in
    real space projection operators read in
  non local Contribution for L=           0  read in
    real space projection operators read in
  non local Contribution for L=           1  read in
    real space projection operators read in
  non local Contribution for L=           1  read in
    real space projection operators read in
    PAW grid and wavefunctions read in

   number of l-projection  operators is LMAX  =           4
   number of lm-projection operators is LMMAX =           8

 POTCAR:    PAW_PBE C_h 06Feb2004                 
   VRHFIN =C: s2p2                                                                                  
   LEXCH  = PE                                                                                      
   EATOM  =   147.1560 eV,   10.8157 Ry                                                             
                                                                                                    
   TITEL  = PAW_PBE C_h 06Feb2004                                                                   
   LULTRA =        F    use ultrasoft PP ?                                                          
   IUNSCR =        1    unscreen: 0-lin 1-nonlin 2-no                                               
   RPACOR =    0.800    partial core radius                                                         
   POMASS =   12.011; ZVAL   =    4.000    mass and valenz                                          
   RCORE  =    1.100    outmost cutoff radius                                                       
   RWIGS  =    1.630; RWIGS  =    0.863    wigner-seitz radius (au A)                               
   ENMAX  =  700.000; ENMIN  =  500.000 eV                                                          
   ICORE  =        2    local potential                                                             
   LCOR   =        T    correct aug charges                                                         
   LPAW   =        T    paw PP                                                                      
   EAUG   =  946.768                                                                                
   DEXC   =    0.000                                                                                
   RMAX   =    1.128    core radius for proj-oper                                                   
   RAUG   =    1.300    factor for augmentation sphere                                              
   RDEP   =    1.162    radius for radial grids                                                     
   RDEPT  =    1.088    core radius for aug-charge                                                  
                                                                                                    
   Atomic configuration                                                                             
    4 entries                                                                                       
     n  l   j            E        occ.                                                              
     1  0  0.50      -273.3789   2.0000                                                             
     2  0  0.50       -13.7508   2.0000                                                             
     2  1  0.50        -5.2854   2.0000                                                             
     3  2  1.50        -5.4423   0.0000                                                             
   Description                                                                                      
     l       E           TYP  RCUT    TYP  RCUT                                                     
     0    -13.7508458     23  1.100                                                                 
     0     -8.2022199     23  1.100                                                                 
     1     -5.2854383     23  1.100                                                                 
     1      1.1560700     23  1.100                                                                 
     2     -5.4423304      7  1.100                                                                 
  local pseudopotential read in
  partial core-charges read in
  partial kinetic energy density read in
  atomic valenz-charges read in
  non local Contribution for L=           0  read in
    real space projection operators read in
  non local Contribution for L=           0  read in
    real space projection operators read in
  non local Contribution for L=           1  read in
    real space projection operators read in
  non local Contribution for L=           1  read in
    real space projection operators read in
    PAW grid and wavefunctions read in

   number of l-projection  operators is LMAX  =           4
   number of lm-projection operators is LMMAX =           8

 POTCAR:    PAW_PBE H_h 06Feb2004                 
   VRHFIN =H: ultrasoft test                                                                        
   LEXCH  = PE                                                                                      
   EATOM  =    12.4884 eV,    0.9179 Ry                                                             
                                                                                                    
   TITEL  = PAW_PBE H_h 06Feb2004                                                                   
   LULTRA =        F    use ultrasoft PP ?                                                          
   IUNSCR =        0    unscreen: 0-lin 1-nonlin 2-no                                               
   RPACOR =    0.000    partial core radius                                                         
   POMASS =    1.000; ZVAL   =    1.000    mass and valenz                                          
   RCORE  =    0.800    outmost cutoff radius                                                       
   RWIGS  =    0.700; RWIGS  =    0.370    wigner-seitz radius (au A)                               
   ENMAX  =  700.000; ENMIN  =  350.000 eV                                                          
   RCLOC  =    0.701    cutoff for local pot                                                        
   LCOR   =        T    correct aug charges                                                         
   LPAW   =        T    paw PP                                                                      
   EAUG   = 1000.000                                                                                
   RMAX   =    0.819    core radius for proj-oper                                                   
   RAUG   =    1.000    factor for augmentation sphere                                              
   RDEP   =    0.817    radius for radial grids                                                     
   RDEPT  =    0.817    core radius for aug-charge                                                  
                                                                                                    
   Atomic configuration                                                                             
    2 entries                                                                                       
     n  l   j            E        occ.                                                              
     1  0  0.50        -6.4927   1.0000                                                             
     2  1  0.50        -3.4015   0.0000                                                             
   Description                                                                                      
     l       E           TYP  RCUT    TYP  RCUT                                                     
     0     -6.4927493     23  0.800                                                                 
     0      6.8029130     23  0.800                                                                 
     1     -6.8029130     23  0.800                                                                 
  local pseudopotential read in
  atomic valenz-charges read in
  non local Contribution for L=           0  read in
    real space projection operators read in
  non local Contribution for L=           0  read in
    real space projection operators read in
  non local Contribution for L=           1  read in
    real space projection operators read in
    PAW grid and wavefunctions read in

   number of l-projection  operators is LMAX  =           3
   number of lm-projection operators is LMMAX =           5

 -----------------------------------------------------------------------------
|                                                                             |
|               ----> ADVICE to this user running VASP <----                  |
|                                                                             |
|     You have a (more or less) 'large supercell' and for larger cells it     |
|     might be more efficient to use real-space projection operators.         |
|     Therefore, try LREAL= Auto in the INCAR file.                           |
|     Mind: For very accurate calculation, you might also keep the            |
|     reciprocal projection scheme (i.e. LREAL=.FALSE.).                      |
|                                                                             |
 -----------------------------------------------------------------------------

  PAW_PBE N_h 06Feb2004                 :
 energy of atom  1       EATOM= -264.5486
 kinetic energy error for atom=    0.0081 (will be added to EATOM!!)
  PAW_PBE C_h 06Feb2004                 :
 energy of atom  2       EATOM= -147.1560
 kinetic energy error for atom=    0.0031 (will be added to EATOM!!)
  PAW_PBE H_h 06Feb2004                 :
 energy of atom  3       EATOM=  -12.4884
 kinetic energy error for atom=    0.0006 (will be added to EATOM!!)


 POSCAR:  N  C  H
  positions in cartesian coordinates
  No initial velocities read in

 METAGGA = R2SCAN                                      LMAXTAU =  6    LMIXTAU =  F

 exchange correlation table for  LEXCH =        8
   RHO(1)=    0.500       N(1)  =     2000
   RHO(2)=  100.500       N(2)  =     4000

 VTST: version 4.1, (05/19/21)

 CHAIN: initializing optimizer
 
 OPT: Using VASP Dynamics algorithm
 CHAIN: Read ICHAIN            0

 POSCAR:  N  C  H
  positions in cartesian coordinates
  No initial velocities read in



--------------------------------------------------------------------------------------------------------


 ion  position               nearest neighbor table
   1  0.151  1.000  1.000-   6 1.34   5 1.34
   2  0.849  0.000  0.000-   7 1.34   8 1.34
   3  0.651  0.500  0.500-  12 1.34   9 1.34
   4  0.349  0.500  0.500-  10 1.34  11 1.34
   5  0.075  0.178  0.124-  13 1.09   1 1.34   7 1.40
   6  0.075  0.822  0.876-  14 1.09   1 1.34   8 1.40
   7  0.925  0.178  0.124-  15 1.09   2 1.34   5 1.40
   8  0.925  0.822  0.876-  16 1.09   2 1.34   6 1.40
   9  0.575  0.322  0.624-  17 1.09   3 1.34  10 1.40
  10  0.425  0.322  0.624-  18 1.09   4 1.34   9 1.40
  11  0.425  0.678  0.376-  19 1.09   4 1.34  12 1.40
  12  0.575  0.678  0.376-  20 1.09   3 1.34  11 1.40
  13  0.136  0.324  0.228-   5 1.09
  14  0.136  0.676  0.772-   6 1.09
  15  0.864  0.324  0.228-   7 1.09
  16  0.864  0.676  0.772-   8 1.09
  17  0.636  0.176  0.728-   9 1.09
  18  0.364  0.176  0.728-  10 1.09
  19  0.364  0.824  0.272-  11 1.09
  20  0.636  0.824  0.272-  12 1.09

  LATTYP: Found a simple orthorhombic cell.
 ALAT       =     3.7330000000
 B/A-ratio  =     1.5671042057
 C/A-ratio  =     2.4979908920
  
  Lattice vectors:
  
 A1 = (   0.0000000000,   0.0000000000,  -3.7330000000)
 A2 = (   0.0000000000,   5.8500000000,   0.0000000000)
 A3 = (   9.3250000000,   0.0000000000,   0.0000000000)


Analysis of symmetry for initial positions (statically):
=====================================================================
 Subroutine PRICEL returns:
 Original cell was already a primitive cell.
 

 Routine SETGRP: Setting up the symmetry group for a 
 simple orthorhombic supercell.


 Subroutine GETGRP returns: Found  1 space group operations
 (whereof  1 operations were pure point group operations)
 out of a pool of  8 trial point group operations.


The static configuration has the point symmetry C_1 .


Analysis of symmetry for dynamics (positions and initial velocities):
=====================================================================
 Subroutine PRICEL returns:
 Original cell was already a primitive cell.
 

 Routine SETGRP: Setting up the symmetry group for a 
 simple orthorhombic supercell.


 Subroutine GETGRP returns: Found  1 space group operations
 (whereof  1 operations were pure point group operations)
 out of a pool of  8 trial point group operations.


The dynamic configuration has the point symmetry C_1 .


 Subroutine INISYM returns: Found  1 space group operations
 (whereof  1 operations are pure point group operations),
 and found     1 'primitive' translations


----------------------------------------------------------------------------------------

                                     Primitive cell                                     

  volume of cell :     203.6398

  direct lattice vectors                    reciprocal lattice vectors
     9.325000000  0.000000000  0.000000000     0.107238606  0.000000000  0.000000000
     0.000000000  5.850000000  0.000000000     0.000000000  0.170940171  0.000000000
     0.000000000  0.000000000  3.733000000     0.000000000  0.000000000  0.267881061

  length of vectors
     9.325000000  5.850000000  3.733000000     0.107238606  0.170940171  0.267881061

  position of ions in fractional coordinates (direct lattice)
     0.150669238  0.999996651  0.999994033
     0.849331286  0.000003349  0.000005967
     0.650673735  0.500015394  0.499984766
     0.349331358  0.499987061  0.500014182
     0.074891730  0.178355258  0.123908041
     0.074887651  0.821642811  0.876083246
     0.925112349  0.178351758  0.123916060
     0.925108503  0.821649483  0.876097782
     0.574892225  0.321650207  0.623904477
     0.425118700  0.321645377  0.623920907
     0.425111975  0.678351562  0.376094536
     0.574886666  0.678357837  0.376077834
     0.135820555  0.323602541  0.227928362
     0.135813324  0.676395330  0.772053947
     0.864185404  0.323605213  0.227952668
     0.864177472  0.676394169  0.772076294
     0.635836396  0.176403555  0.727923881
     0.364199748  0.176395180  0.727963179
     0.364168202  0.823599601  0.272077307
     0.635805652  0.823606609  0.272038715

  ion indices of the primitive-cell ions
   primitive index   ion index
                 1           1
                 2           2
                 3           3
                 4           4
                 5           5
                 6           6
                 7           7
                 8           8
                 9           9
                10          10
                11          11
                12          12
                13          13
                14          14
                15          15
                16          16
                17          17
                18          18
                19          19
                20          20

----------------------------------------------------------------------------------------



 KPOINTS: auto                                    

Automatic generation of k-mesh.
 Grid dimensions read from file:
 generate k-points for:    3    5    7

 Generating k-lattice:

  Cartesian coordinates                     Fractional coordinates (reciprocal lattice)
     0.035746202  0.000000000  0.000000000     0.333333333  0.000000000  0.000000000
     0.000000000  0.034188034  0.000000000     0.000000000  0.200000000  0.000000000
     0.000000000  0.000000000  0.038268723     0.000000000  0.000000000  0.142857143

  Length of vectors
     0.035746202  0.034188034  0.038268723

  Shift w.r.t. Gamma in fractional coordinates (k-lattice)
     0.000000000  0.000000000  0.000000000

 
 Subroutine IBZKPT returns following result:
 ===========================================
 
 Found     53 irreducible k-points:
 
 Following reciprocal coordinates:
            Coordinates               Weight
  0.000000  0.000000  0.000000      1.000000
  0.333333  0.000000  0.000000      2.000000
  0.000000  0.200000  0.000000      2.000000
  0.333333  0.200000  0.000000      2.000000
 -0.333333  0.200000  0.000000      2.000000
  0.000000  0.400000  0.000000      2.000000
  0.333333  0.400000  0.000000      2.000000
 -0.333333  0.400000  0.000000      2.000000
  0.000000  0.000000  0.142857      2.000000
  0.333333  0.000000  0.142857      2.000000
 -0.333333  0.000000  0.142857      2.000000
  0.000000  0.200000  0.142857      2.000000
  0.000000 -0.200000  0.142857      2.000000
  0.333333  0.200000  0.142857      2.000000
 -0.333333 -0.200000  0.142857      2.000000
 -0.333333  0.200000 -0.142857      2.000000
  0.333333 -0.200000 -0.142857      2.000000
  0.000000  0.400000  0.142857      2.000000
  0.000000 -0.400000  0.142857      2.000000
  0.333333  0.400000  0.142857      2.000000
 -0.333333 -0.400000  0.142857      2.000000
 -0.333333  0.400000 -0.142857      2.000000
  0.333333 -0.400000 -0.142857      2.000000
  0.000000  0.000000  0.285714      2.000000
  0.333333  0.000000  0.285714      2.000000
 -0.333333  0.000000  0.285714      2.000000
  0.000000  0.200000  0.285714      2.000000
  0.000000 -0.200000  0.285714      2.000000
  0.333333  0.200000  0.285714      2.000000
 -0.333333 -0.200000  0.285714      2.000000
 -0.333333  0.200000 -0.285714      2.000000
  0.333333 -0.200000 -0.285714      2.000000
  0.000000  0.400000  0.285714      2.000000
  0.000000 -0.400000  0.285714      2.000000
  0.333333  0.400000  0.285714      2.000000
 -0.333333 -0.400000  0.285714      2.000000
 -0.333333  0.400000 -0.285714      2.000000
  0.333333 -0.400000 -0.285714      2.000000
  0.000000  0.000000  0.428571      2.000000
  0.333333  0.000000  0.428571      2.000000
 -0.333333  0.000000  0.428571      2.000000
  0.000000  0.200000  0.428571      2.000000
  0.000000 -0.200000  0.428571      2.000000
  0.333333  0.200000  0.428571      2.000000
 -0.333333 -0.200000  0.428571      2.000000
 -0.333333  0.200000 -0.428571      2.000000
  0.333333 -0.200000 -0.428571      2.000000
  0.000000  0.400000  0.428571      2.000000
  0.000000 -0.400000  0.428571      2.000000
  0.333333  0.400000  0.428571      2.000000
 -0.333333 -0.400000  0.428571      2.000000
 -0.333333  0.400000 -0.428571      2.000000
  0.333333 -0.400000 -0.428571      2.000000
 
 Following cartesian coordinates:
            Coordinates               Weight
  0.000000  0.000000  0.000000      1.000000
  0.035746  0.000000  0.000000      2.000000
  0.000000  0.034188  0.000000      2.000000
  0.035746  0.034188  0.000000      2.000000
 -0.035746  0.034188  0.000000      2.000000
  0.000000  0.068376  0.000000      2.000000
  0.035746  0.068376  0.000000      2.000000
 -0.035746  0.068376  0.000000      2.000000
  0.000000  0.000000  0.038269      2.000000
  0.035746  0.000000  0.038269      2.000000
 -0.035746  0.000000  0.038269      2.000000
  0.000000  0.034188  0.038269      2.000000
  0.000000 -0.034188  0.038269      2.000000
  0.035746  0.034188  0.038269      2.000000
 -0.035746 -0.034188  0.038269      2.000000
 -0.035746  0.034188 -0.038269      2.000000
  0.035746 -0.034188 -0.038269      2.000000
  0.000000  0.068376  0.038269      2.000000
  0.000000 -0.068376  0.038269      2.000000
  0.035746  0.068376  0.038269      2.000000
 -0.035746 -0.068376  0.038269      2.000000
 -0.035746  0.068376 -0.038269      2.000000
  0.035746 -0.068376 -0.038269      2.000000
  0.000000  0.000000  0.076537      2.000000
  0.035746  0.000000  0.076537      2.000000
 -0.035746  0.000000  0.076537      2.000000
  0.000000  0.034188  0.076537      2.000000
  0.000000 -0.034188  0.076537      2.000000
  0.035746  0.034188  0.076537      2.000000
 -0.035746 -0.034188  0.076537      2.000000
 -0.035746  0.034188 -0.076537      2.000000
  0.035746 -0.034188 -0.076537      2.000000
  0.000000  0.068376  0.076537      2.000000
  0.000000 -0.068376  0.076537      2.000000
  0.035746  0.068376  0.076537      2.000000
 -0.035746 -0.068376  0.076537      2.000000
 -0.035746  0.068376 -0.076537      2.000000
  0.035746 -0.068376 -0.076537      2.000000
  0.000000  0.000000  0.114806      2.000000
  0.035746  0.000000  0.114806      2.000000
 -0.035746  0.000000  0.114806      2.000000
  0.000000  0.034188  0.114806      2.000000
  0.000000 -0.034188  0.114806      2.000000
  0.035746  0.034188  0.114806      2.000000
 -0.035746 -0.034188  0.114806      2.000000
 -0.035746  0.034188 -0.114806      2.000000
  0.035746 -0.034188 -0.114806      2.000000
  0.000000  0.068376  0.114806      2.000000
  0.000000 -0.068376  0.114806      2.000000
  0.035746  0.068376  0.114806      2.000000
 -0.035746 -0.068376  0.114806      2.000000
 -0.035746  0.068376 -0.114806      2.000000
  0.035746 -0.068376 -0.114806      2.000000
 


--------------------------------------------------------------------------------------------------------




 Dimension of arrays:
   k-points           NKPTS =     53   k-points in BZ     NKDIM =     53   number of bands    NBANDS=     44
   number of dos      NEDOS =    301   number of ions     NIONS =     20
   non local maximal  LDIM  =      4   non local SUM 2l+1 LMDIM =      8
   total plane-waves  NPLWV = 230400
   max r-space proj   IRMAX =      1   max aug-charges    IRDMAX=   8234
   dimension x,y,z NGX =    96 NGY =   60 NGZ =   40
   dimension x,y,z NGXF=   192 NGYF=  120 NGZF=   80
   support grid    NGXF=   192 NGYF=  120 NGZF=   80
   ions per type =               4   8   8
   NGX,Y,Z   is equivalent  to a cutoff of  17.11, 17.05, 17.81 a.u.
   NGXF,Y,Z  is equivalent  to a cutoff of  34.23, 34.10, 35.63 a.u.

 SYSTEM =  unknown system                          
 POSCAR =   N  C  H                                

 Startparameter for this run:
   NWRITE =      2    write-flag & timer
   PREC   = accura    normal or accurate (medium, high low for compatibility)
   ISTART =      0    job   : 0-new  1-cont  2-samecut
   ICHARG =      2    charge: 1-file 2-atom 10-const
   ISPIN  =      1    spin polarized calculation?
   LNONCOLLINEAR =      F non collinear calculations
   LSORBIT =      F    spin-orbit coupling
   INIWAV =      1    electr: 0-lowe 1-rand  2-diag
   LASPH  =      T    aspherical Exc in radial PAW
 Electronic Relaxation 1
   ENCUT  = 1000.0 eV  73.50 Ry    8.57 a.u.  24.04 15.08  9.63*2*pi/ulx,y,z
   ENINI  = 1000.0     initial cutoff
   ENAUG  = 1000.0 eV  augmentation charge cutoff
   NELM   =     60;   NELMIN=  2; NELMDL= -5     # of ELM steps 
   EDIFF  = 0.1E-06   stopping-criterion for ELM
   LREAL  =      F    real-space projection
   NLSPLINE    = F    spline interpolate recip. space projectors
   LCOMPAT=      F    compatible to vasp.4.4
   GGA_COMPAT  = T    GGA compatible to vasp.4.4-vasp.4.6
   LMAXPAW     = -100 max onsite density
   LMAXMIX     =    2 max onsite mixed and CHGCAR
   VOSKOWN=      0    Vosko Wilk Nusair interpolation
   ROPT   =    0.00000   0.00000   0.00000
 Ionic relaxation
   EDIFFG = 0.1E-05   stopping-criterion for IOM
   NSW    =      0    number of steps for IOM
   NBLOCK =      1;   KBLOCK =      1    inner block; outer block 
   IBRION =     -1    ionic relax: 0-MD 1-quasi-New 2-CG
   NFREE  =      0    steps in history (QN), initial steepest desc. (CG)
   ISIF   =      0    stress and relaxation
   IWAVPR =     10    prediction:  0-non 1-charg 2-wave 3-comb
   ISYM   =      2    0-nonsym 1-usesym 2-fastsym
   LCORR  =      T    Harris-Foulkes like correction to forces

   POTIM  = 0.5000    time-step for ionic-motion
   TEIN   =    0.0    initial temperature
   TEBEG  =    0.0;   TEEND  =   0.0 temperature during run
   SMASS  =  -3.00    Nose mass-parameter (am)
   estimated Nose-frequenzy (Omega)   =  0.10E-29 period in steps = 0.13E+47 mass=  -0.199E-26a.u.
   SCALEE = 1.0000    scale energy and forces
   NPACO  =    256;   APACO  = 10.0  distance and # of slots for P.C.
   PSTRESS=    0.0 pullay stress

  Mass of Ions in am
   POMASS =  14.00 12.01  1.00
  Ionic Valenz
   ZVAL   =   5.00  4.00  1.00
  Atomic Wigner-Seitz radii
   RWIGS  =  -1.00 -1.00 -1.00
  virtual crystal weights 
   VCA    =   1.00  1.00  1.00
   NELECT =      60.0000    total number of electrons
   NUPDOWN=      -1.0000    fix difference up-down

 DOS related values:
   EMIN   =  10.00;   EMAX   =-10.00  energy-range for DOS
   EFERMI =   0.00;   METHOD = LEGACY      
   ISMEAR =     0;   SIGMA  =   0.01  broadening in eV -4-tet -1-fermi 0-gaus

 Electronic relaxation 2 (details)
   IALGO  =     58    algorithm
   LDIAG  =      T    sub-space diagonalisation (order eigenvalues)
   LSUBROT=      F    optimize rotation matrix (better conditioning)
   TURBO    =      0    0=normal 1=particle mesh
   IRESTART =      0    0=no restart 2=restart with 2 vectors
   NREBOOT  =      0    no. of reboots
   NMIN     =      0    reboot dimension
   EREF     =   0.00    reference energy to select bands
   IMIX   =      4    mixing-type and parameters
     AMIX     =   0.40;   BMIX     =  1.00
     AMIX_MAG =   1.60;   BMIX_MAG =  1.00
     AMIN     =   0.10
     WC   =   100.;   INIMIX=   1;  MIXPRE=   1;  MAXMIX= -45

 Intra band minimization:
   WEIMIN = 0.0000     energy-eigenvalue tresh-hold
   EBREAK =  0.57E-09  absolut break condition
   DEPER  =   0.30     relativ break condition  

   TIME   =   0.40     timestep for ELM

  volume/ion in A,a.u.               =      10.18        68.71
  Fermi-wavevector in a.u.,A,eV,Ry     =   1.089359  2.058590 16.146074  1.186703
  Thomas-Fermi vector in A             =   2.225560

 Write flags
   LWAVE        =      F    write WAVECAR
   LDOWNSAMPLE  =      F    k-point downsampling of WAVECAR
   LCHARG       =      F    write CHGCAR
   LVTOT        =      F    write LOCPOT, total local potential
   LVHAR        =      F    write LOCPOT, Hartree potential only
   LELF         =      F    write electronic localiz. function (ELF)
   LORBIT       =      0    0 simple, 1 ext, 2 COOP (PROOUT), +10 PAW based schemes


 Dipole corrections
   LMONO  =      F    monopole corrections only (constant potential shift)
   LDIPOL =      F    correct potential (dipole corrections)
   IDIPOL =      0    1-x, 2-y, 3-z, 4-all directions 
   EPSILON=  1.0000000 bulk dielectric constant

 Exchange correlation treatment:
   GGA     =    --    GGA type
   LEXCH   =     8    internal setting for exchange type
   LIBXC   =     F    Libxc                    
   VOSKOWN =     0    Vosko Wilk Nusair interpolation
   LHFCALC =     F    Hartree Fock is set to
   LHFONE  =     F    Hartree Fock one center treatment
   AEXX    =    0.0000 exact exchange contribution

 Linear response parameters
   LEPSILON=     F    determine dielectric tensor
   LRPA    =     F    only Hartree local field effects (RPA)
   LNABLA  =     F    use nabla operator in PAW spheres
   LVEL    =     F    velocity operator in full k-point grid
   CSHIFT  =0.1000    complex shift for real part using Kramers Kronig
   OMEGAMAX=  -1.0    maximum frequency
   DEG_THRESHOLD= 0.2000000E-02 threshold for treating states as degnerate
   RTIME   =   -0.100 relaxation time in fs
  (WPLASMAI=    0.000 imaginary part of plasma frequency in eV, 0.658/RTIME)
   DFIELD  = 0.0000000 0.0000000 0.0000000 field for delta impulse in time

  Optional k-point grid parameters
   LKPOINTS_OPT  =     F    use optional k-point grid
   KPOINTS_OPT_MODE=     1    mode for optional k-point grid

 Orbital magnetization related:
   ORBITALMAG=     F  switch on orbital magnetization
   LCHIMAG   =     F  perturbation theory with respect to B field
   DQ        =  0.001000  dq finite difference perturbation B field
   LLRAUG    =     F  two centre corrections for induced B field
   LBONE     =     F  B-component reconstruction in AE one-centre
   LVGVCALC  =     T  calculate vGv susceptibility
   LVGVAPPL  =     F  apply vGv susceptibility instead of pGv for G=0

 Random number generation:
   RANDOM_GENERATOR = DEFAULT
   PCG_SEED         = not used


--------------------------------------------------------------------------------------------------------


 Static calculation
 charge density and potential will be updated during run
 non-spin polarized calculation
 Conjugate gradient for all bands (Freysoldt, et al. PRB 79, 241103 (2009))
 preconditioned conjugated gradient                                        
 perform sub-space diagonalisation
    before iterative eigenvector-optimisation
 modified Broyden-mixing scheme, WC =      100.0
 initial mixing is a Kerker type mixing with AMIX =  0.4000 and BMIX =      1.0000
 Hartree-type preconditioning will be used
 using additional bands           14
 reciprocal scheme for non local part
 use partial core corrections
 no Harris-corrections to forces 
 use gradient corrections 
 use of overlap-Matrix (Vanderbilt PP)
 Gauss-broadening in eV      SIGMA  =   0.01


--------------------------------------------------------------------------------------------------------


  energy-cutoff  :     1000.00
  volume of cell :      203.64
      direct lattice vectors                 reciprocal lattice vectors
     9.325000000  0.000000000  0.000000000     0.107238606  0.000000000  0.000000000
     0.000000000  5.850000000  0.000000000     0.000000000  0.170940171  0.000000000
     0.000000000  0.000000000  3.733000000     0.000000000  0.000000000  0.267881061

  length of vectors
     9.325000000  5.850000000  3.733000000     0.107238606  0.170940171  0.267881061



 k-points in units of 2pi/SCALE and weight: auto                                    
   0.00000000  0.00000000  0.00000000       0.010
   0.03574620  0.00000000  0.00000000       0.019
   0.00000000  0.03418803  0.00000000       0.019
   0.03574620  0.03418803  0.00000000       0.019
  -0.03574620  0.03418803  0.00000000       0.019
   0.00000000  0.06837607  0.00000000       0.019
   0.03574620  0.06837607  0.00000000       0.019
  -0.03574620  0.06837607  0.00000000       0.019
   0.00000000  0.00000000  0.03826872       0.019
   0.03574620  0.00000000  0.03826872       0.019
  -0.03574620  0.00000000  0.03826872       0.019
   0.00000000  0.03418803  0.03826872       0.019
   0.00000000 -0.03418803  0.03826872       0.019
   0.03574620  0.03418803  0.03826872       0.019
  -0.03574620 -0.03418803  0.03826872       0.019
  -0.03574620  0.03418803 -0.03826872       0.019
   0.03574620 -0.03418803 -0.03826872       0.019
   0.00000000  0.06837607  0.03826872       0.019
   0.00000000 -0.06837607  0.03826872       0.019
   0.03574620  0.06837607  0.03826872       0.019
  -0.03574620 -0.06837607  0.03826872       0.019
  -0.03574620  0.06837607 -0.03826872       0.019
   0.03574620 -0.06837607 -0.03826872       0.019
   0.00000000  0.00000000  0.07653745       0.019
   0.03574620  0.00000000  0.07653745       0.019
  -0.03574620  0.00000000  0.07653745       0.019
   0.00000000  0.03418803  0.07653745       0.019
   0.00000000 -0.03418803  0.07653745       0.019
   0.03574620  0.03418803  0.07653745       0.019
  -0.03574620 -0.03418803  0.07653745       0.019
  -0.03574620  0.03418803 -0.07653745       0.019
   0.03574620 -0.03418803 -0.07653745       0.019
   0.00000000  0.06837607  0.07653745       0.019
   0.00000000 -0.06837607  0.07653745       0.019
   0.03574620  0.06837607  0.07653745       0.019
  -0.03574620 -0.06837607  0.07653745       0.019
  -0.03574620  0.06837607 -0.07653745       0.019
   0.03574620 -0.06837607 -0.07653745       0.019
   0.00000000  0.00000000  0.11480617       0.019
   0.03574620  0.00000000  0.11480617       0.019
  -0.03574620  0.00000000  0.11480617       0.019
   0.00000000  0.03418803  0.11480617       0.019
   0.00000000 -0.03418803  0.11480617       0.019
   0.03574620  0.03418803  0.11480617       0.019
  -0.03574620 -0.03418803  0.11480617       0.019
  -0.03574620  0.03418803 -0.11480617       0.019
   0.03574620 -0.03418803 -0.11480617       0.019
   0.00000000  0.06837607  0.11480617       0.019
   0.00000000 -0.06837607  0.11480617       0.019
   0.03574620  0.06837607  0.11480617       0.019
  -0.03574620 -0.06837607  0.11480617       0.019
  -0.03574620  0.06837607 -0.11480617       0.019
   0.03574620 -0.06837607 -0.11480617       0.019

 k-points in reciprocal lattice and weights: auto                                    
   0.00000000  0.00000000  0.00000000       0.010
   0.33333333  0.00000000  0.00000000       0.019
   0.00000000  0.20000000  0.00000000       0.019
   0.33333333  0.20000000  0.00000000       0.019
  -0.33333333  0.20000000  0.00000000       0.019
   0.00000000  0.40000000  0.00000000       0.019
   0.33333333  0.40000000  0.00000000       0.019
  -0.33333333  0.40000000  0.00000000       0.019
   0.00000000  0.00000000  0.14285714       0.019
   0.33333333  0.00000000  0.14285714       0.019
  -0.33333333  0.00000000  0.14285714       0.019
   0.00000000  0.20000000  0.14285714       0.019
   0.00000000 -0.20000000  0.14285714       0.019
   0.33333333  0.20000000  0.14285714       0.019
  -0.33333333 -0.20000000  0.14285714       0.019
  -0.33333333  0.20000000 -0.14285714       0.019
   0.33333333 -0.20000000 -0.14285714       0.019
   0.00000000  0.40000000  0.14285714       0.019
   0.00000000 -0.40000000  0.14285714       0.019
   0.33333333  0.40000000  0.14285714       0.019
  -0.33333333 -0.40000000  0.14285714       0.019
  -0.33333333  0.40000000 -0.14285714       0.019
   0.33333333 -0.40000000 -0.14285714       0.019
   0.00000000  0.00000000  0.28571429       0.019
   0.33333333  0.00000000  0.28571429       0.019
  -0.33333333  0.00000000  0.28571429       0.019
   0.00000000  0.20000000  0.28571429       0.019
   0.00000000 -0.20000000  0.28571429       0.019
   0.33333333  0.20000000  0.28571429       0.019
  -0.33333333 -0.20000000  0.28571429       0.019
  -0.33333333  0.20000000 -0.28571429       0.019
   0.33333333 -0.20000000 -0.28571429       0.019
   0.00000000  0.40000000  0.28571429       0.019
   0.00000000 -0.40000000  0.28571429       0.019
   0.33333333  0.40000000  0.28571429       0.019
  -0.33333333 -0.40000000  0.28571429       0.019
  -0.33333333  0.40000000 -0.28571429       0.019
   0.33333333 -0.40000000 -0.28571429       0.019
   0.00000000  0.00000000  0.42857143       0.019
   0.33333333  0.00000000  0.42857143       0.019
  -0.33333333  0.00000000  0.42857143       0.019
   0.00000000  0.20000000  0.42857143       0.019
   0.00000000 -0.20000000  0.42857143       0.019
   0.33333333  0.20000000  0.42857143       0.019
  -0.33333333 -0.20000000  0.42857143       0.019
  -0.33333333  0.20000000 -0.42857143       0.019
   0.33333333 -0.20000000 -0.42857143       0.019
   0.00000000  0.40000000  0.42857143       0.019
   0.00000000 -0.40000000  0.42857143       0.019
   0.33333333  0.40000000  0.42857143       0.019
  -0.33333333 -0.40000000  0.42857143       0.019
  -0.33333333  0.40000000 -0.42857143       0.019
   0.33333333 -0.40000000 -0.42857143       0.019

 position of ions in fractional coordinates (direct lattice) 
   0.15066924  0.99999665  0.99999403
   0.84933129  0.00000335  0.00000597
   0.65067374  0.50001539  0.49998477
   0.34933136  0.49998706  0.50001418
   0.07489173  0.17835526  0.12390804
   0.07488765  0.82164281  0.87608325
   0.92511235  0.17835176  0.12391606
   0.92510850  0.82164948  0.87609778
   0.57489223  0.32165021  0.62390448
   0.42511870  0.32164538  0.62392091
   0.42511198  0.67835156  0.37609454
   0.57488667  0.67835784  0.37607783
   0.13582056  0.32360254  0.22792836
   0.13581332  0.67639533  0.77205395
   0.86418540  0.32360521  0.22795267
   0.86417747  0.67639417  0.77207629
   0.63583640  0.17640356  0.72792388
   0.36419975  0.17639518  0.72796318
   0.36416820  0.82359960  0.27207731
   0.63580565  0.82360661  0.27203872

 position of ions in cartesian coordinates  (Angst):
   1.40499064  5.84998041  3.73297772
   7.92001424  0.00001959  0.00002228
   6.06753258  2.92509006  1.86644313
   3.25751491  2.92492431  1.86655294
   0.69836538  1.04337826  0.46254872
   0.69832735  4.80661044  3.27041876
   8.62667265  1.04335779  0.46257865
   8.62663679  4.80664948  3.27047302
   5.36087000  1.88165371  2.32903541
   3.96423188  1.88162545  2.32909675
   3.96416917  3.96835664  1.40396090
   5.36081816  3.96839334  1.40389856
   1.26652668  1.89307486  0.85085658
   1.26645924  3.95691268  2.88207739
   8.05852889  1.89309050  0.85094731
   8.05845493  3.95690589  2.88216080
   5.92917440  1.03196080  2.71733985
   3.39616265  1.03191180  2.71748655
   3.39586849  4.81805766  1.01566459
   5.92888770  4.81809866  1.01552052



--------------------------------------------------------------------------------------------------------


 k-point   1 :   0.0000 0.0000 0.0000  plane waves:   14609
 k-point   2 :   0.3333 0.0000 0.0000  plane waves:   14648
 k-point   3 :   0.0000 0.2000 0.0000  plane waves:   14622
 k-point   4 :   0.3333 0.2000 0.0000  plane waves:   14644
 k-point   5 :  -0.3333 0.2000 0.0000  plane waves:   14644
 k-point   6 :   0.0000 0.4000 0.0000  plane waves:   14630
 k-point   7 :   0.3333 0.4000 0.0000  plane waves:   14646
 k-point   8 :  -0.3333 0.4000 0.0000  plane waves:   14646
 k-point   9 :   0.0000 0.0000 0.1429  plane waves:   14601
 k-point  10 :   0.3333 0.0000 0.1429  plane waves:   14623
 k-point  11 :  -0.3333 0.0000 0.1429  plane waves:   14623
 k-point  12 :   0.0000 0.2000 0.1429  plane waves:   14609
 k-point  13 :   0.0000-0.2000 0.1429  plane waves:   14609
 k-point  14 :   0.3333 0.2000 0.1429  plane waves:   14634
 k-point  15 :  -0.3333-0.2000 0.1429  plane waves:   14634
 k-point  16 :  -0.3333 0.2000-0.1429  plane waves:   14634
 k-point  17 :   0.3333-0.2000-0.1429  plane waves:   14634
 k-point  18 :   0.0000 0.4000 0.1429  plane waves:   14642
 k-point  19 :   0.0000-0.4000 0.1429  plane waves:   14642
 k-point  20 :   0.3333 0.4000 0.1429  plane waves:   14656
 k-point  21 :  -0.3333-0.4000 0.1429  plane waves:   14656
 k-point  22 :  -0.3333 0.4000-0.1429  plane waves:   14656
 k-point  23 :   0.3333-0.4000-0.1429  plane waves:   14656
 k-point  24 :   0.0000 0.0000 0.2857  plane waves:   14613
 k-point  25 :   0.3333 0.0000 0.2857  plane waves:   14598
 k-point  26 :  -0.3333 0.0000 0.2857  plane waves:   14598
 k-point  27 :   0.0000 0.2000 0.2857  plane waves:   14619
 k-point  28 :   0.0000-0.2000 0.2857  plane waves:   14619
 k-point  29 :   0.3333 0.2000 0.2857  plane waves:   14620
 k-point  30 :  -0.3333-0.2000 0.2857  plane waves:   14620
 k-point  31 :  -0.3333 0.2000-0.2857  plane waves:   14620
 k-point  32 :   0.3333-0.2000-0.2857  plane waves:   14620
 k-point  33 :   0.0000 0.4000 0.2857  plane waves:   14620
 k-point  34 :   0.0000-0.4000 0.2857  plane waves:   14620
 k-point  35 :   0.3333 0.4000 0.2857  plane waves:   14645
 k-point  36 :  -0.3333-0.4000 0.2857  plane waves:   14645
 k-point  37 :  -0.3333 0.4000-0.2857  plane waves:   14645
 k-point  38 :   0.3333-0.4000-0.2857  plane waves:   14645
 k-point  39 :   0.0000 0.0000 0.4286  plane waves:   14626
 k-point  40 :   0.3333 0.0000 0.4286  plane waves:   14598
 k-point  41 :  -0.3333 0.0000 0.4286  plane waves:   14598
 k-point  42 :   0.0000 0.2000 0.4286  plane waves:   14621
 k-point  43 :   0.0000-0.2000 0.4286  plane waves:   14621
 k-point  44 :   0.3333 0.2000 0.4286  plane waves:   14608
 k-point  45 :  -0.3333-0.2000 0.4286  plane waves:   14608
 k-point  46 :  -0.3333 0.2000-0.4286  plane waves:   14608
 k-point  47 :   0.3333-0.2000-0.4286  plane waves:   14608
 k-point  48 :   0.0000 0.4000 0.4286  plane waves:   14589
 k-point  49 :   0.0000-0.4000 0.4286  plane waves:   14589
 k-point  50 :   0.3333 0.4000 0.4286  plane waves:   14606
 k-point  51 :  -0.3333-0.4000 0.4286  plane waves:   14606
 k-point  52 :  -0.3333 0.4000-0.4286  plane waves:   14606
 k-point  53 :   0.3333-0.4000-0.4286  plane waves:   14606

 maximum and minimum number of plane-waves per node :       503      403

 maximum number of plane-waves:     14656
 maximum index in each direction: 
   IXMAX=   24   IYMAX=   15   IZMAX=   10
   IXMIN=  -24   IYMIN=  -15   IZMIN=  -10


 parallel 3D FFT for wavefunctions:
    minimum data exchange during FFTs selected (reduces bandwidth)
 parallel 3D FFT for charge:
    minimum data exchange during FFTs selected (reduces bandwidth)


 total amount of memory used by VASP MPI-rank0    52414. kBytes
=======================================================================

   base      :      30000. kBytes
   nonl-proj :       5289. kBytes
   fftplans  :        868. kBytes
   grid      :       1929. kBytes
   one-center:          3. kBytes
   wavefun   :      14325. kBytes

     INWAV:  cpu time      0.0016: real time      0.0018
 Broyden mixing: mesh for mixing (old mesh)
   NGX = 49   NGY = 31   NGZ = 19
  (NGX  =192   NGY  =120   NGZ  = 80)
  gives a total of  28861 points

 initial charge density was supplied:
 charge density of overlapping atoms calculated
 number of electron      60.0000000 magnetization 
 keeping initial charge density in first step


--------------------------------------------------------------------------------------------------------


 Maximum index for augmentation-charges          451 (set IRDMAX)


--------------------------------------------------------------------------------------------------------


 First call to EWALD:  gamma=   0.301
 Maximum number of real-space cells 2x 3x 4
 Maximum number of reciprocal cells 4x 3x 2

    FEWALD:  cpu time      0.0018: real time      0.0018


--------------------------------------- Ionic step        1  -------------------------------------------




--------------------------------------- Iteration      1(   1)  ---------------------------------------


    POTLOK:  cpu time      0.0633: real time      0.0642
    SETDIJ:  cpu time      0.2725: real time      0.2726
    TRIAL :  cpu time      1.9554: real time      1.9581
    CORREC:  cpu time      0.0020: real time      0.0022
    --------------------------------------------
      LOOP:  cpu time      2.3013: real time      2.3053

 eigenvalue-minimisations  :  4664
 total energy-change (2. order) : 0.4256606E+03  (-0.4488691E+04)
 number of electron      60.0000000 magnetization 
 augmentation part       60.0000000 magnetization 

 Free energy of the ion-electron system (eV)
  ---------------------------------------------------
  alpha Z        PSCENC =        55.52509218
  Ewald energy   TEWEN  =     -1086.26724324
  -Hartree energ DENC   =     -1024.31100298
  -exchange      EXHF   =         0.00000000
  -V(xc)+E(xc)   XCENC  =       190.52913245
  PAW double counting   =      1704.12118315    -1684.97442871
  entropy T*S    EENTRO =        -0.00016654
  eigenvalues    EBANDS =       -64.24955389
  atomic energy  EATOM  =      2335.28761795
  ---------------------------------------------------
  free energy    TOTEN  =       425.66063037 eV

  energy without entropy =      425.66079691  energy(sigma->0) =      425.66071364


--------------------------------------------------------------------------------------------------------




--------------------------------------- Iteration      1(   2)  ---------------------------------------


    TRIAL :  cpu time      2.2526: real time      2.2537
    CORREC:  cpu time      0.0004: real time      0.0004
    --------------------------------------------
      LOOP:  cpu time      2.2663: real time      2.2843

 eigenvalue-minimisations  :  6220
 total energy-change (2. order) :-0.5210808E+03  (-0.4968666E+03)
 number of electron      60.0000000 magnetization 
 augmentation part       60.0000000 magnetization 

 Free energy of the ion-electron system (eV)
  ---------------------------------------------------
  alpha Z        PSCENC =        55.52509218
  Ewald energy   TEWEN  =     -1086.26724324
  -Hartree energ DENC   =     -1024.31100298
  -exchange      EXHF   =         0.00000000
  -V(xc)+E(xc)   XCENC  =       190.52913245
  PAW double counting   =      1704.12118315    -1684.97442871
  entropy T*S    EENTRO =        -0.00000000
  eigenvalues    EBANDS =      -585.33050711
  atomic energy  EATOM  =      2335.28761795
  ---------------------------------------------------
  free energy    TOTEN  =       -95.42015631 eV

  energy without entropy =      -95.42015631  energy(sigma->0) =      -95.42015631


--------------------------------------------------------------------------------------------------------




--------------------------------------- Iteration      1(   3)  ---------------------------------------


    TRIAL :  cpu time      2.1202: real time      2.1209
    CORREC:  cpu time      0.0004: real time      0.0004
    --------------------------------------------
      LOOP:  cpu time      2.1346: real time      2.1507

 eigenvalue-minimisations  :  5600
 total energy-change (2. order) :-0.6958819E+02  (-0.6875425E+02)
 number of electron      60.0000000 magnetization 
 augmentation part       60.0000000 magnetization 

 Free energy of the ion-electron system (eV)
  ---------------------------------------------------
  alpha Z        PSCENC =        55.52509218
  Ewald energy   TEWEN  =     -1086.26724324
  -Hartree energ DENC   =     -1024.31100298
  -exchange      EXHF   =         0.00000000
  -V(xc)+E(xc)   XCENC  =       190.52913245
  PAW double counting   =      1704.12118315    -1684.97442871
  entropy T*S    EENTRO =        -0.00000000
  eigenvalues    EBANDS =      -654.91869940
  atomic energy  EATOM  =      2335.28761795
  ---------------------------------------------------
  free energy    TOTEN  =      -165.00834860 eV

  energy without entropy =     -165.00834860  energy(sigma->0) =     -165.00834860


--------------------------------------------------------------------------------------------------------




--------------------------------------- Iteration      1(   4)  ---------------------------------------


    TRIAL :  cpu time      2.3248: real time      2.3258
    CORREC:  cpu time      0.0004: real time      0.0004
    --------------------------------------------
      LOOP:  cpu time      2.3543: real time      2.3554

 eigenvalue-minimisations  :  6504
 total energy-change (2. order) :-0.2383451E+01  (-0.2374028E+01)
 number of electron      60.0000000 magnetization 
 augmentation part       60.0000000 magnetization 

 Free energy of the ion-electron system (eV)
  ---------------------------------------------------
  alpha Z        PSCENC =        55.52509218
  Ewald energy   TEWEN  =     -1086.26724324
  -Hartree energ DENC   =     -1024.31100298
  -exchange      EXHF   =         0.00000000
  -V(xc)+E(xc)   XCENC  =       190.52913245
  PAW double counting   =      1704.12118315    -1684.97442871
  entropy T*S    EENTRO =        -0.00000000
  eigenvalues    EBANDS =      -657.30215021
  atomic energy  EATOM  =      2335.28761795
  ---------------------------------------------------
  free energy    TOTEN  =      -167.39179941 eV

  energy without entropy =     -167.39179941  energy(sigma->0) =     -167.39179941


--------------------------------------------------------------------------------------------------------




--------------------------------------- Iteration      1(   5)  ---------------------------------------


    TRIAL :  cpu time      2.1967: real time      2.1976
    CORREC:  cpu time      0.0003: real time      0.0003
    CHARGE:  cpu time      0.1626: real time      0.1637
    --------------------------------------------
      LOOP:  cpu time      2.3742: real time      2.3916

 eigenvalue-minimisations  :  6008
 total energy-change (2. order) :-0.6203475E-01  (-0.6200682E-01)
 number of electron      59.9999999 magnetization 
 augmentation part       -0.1972427 magnetization 

 Free energy of the ion-electron system (eV)
  ---------------------------------------------------
  alpha Z        PSCENC =        55.52509218
  Ewald energy   TEWEN  =     -1086.26724324
  -Hartree energ DENC   =     -1024.31100298
  -exchange      EXHF   =         0.00000000
  -V(xc)+E(xc)   XCENC  =       190.52913245
  PAW double counting   =      1704.12118315    -1684.97442871
  entropy T*S    EENTRO =        -0.00000000
  eigenvalues    EBANDS =      -657.36418496
  atomic energy  EATOM  =      2335.28761795
  ---------------------------------------------------
  free energy    TOTEN  =      -167.45383416 eV

  energy without entropy =     -167.45383416  energy(sigma->0) =     -167.45383416


--------------------------------------------------------------------------------------------------------




--------------------------------------- Iteration      1(   6)  ---------------------------------------


    POTLOK:  cpu time      0.0425: real time      0.0425
    SETDIJ:  cpu time      0.2651: real time      0.2651
    TRIAL :  cpu time      1.5907: real time      1.5935
    CORREC:  cpu time      0.9848: real time      0.9863
    CHARGE:  cpu time      0.1493: real time      0.1495
    --------------------------------------------
      LOOP:  cpu time      3.0462: real time      3.0642

 eigenvalue-minimisations  :     0
 total energy-change (2. order) : 0.2985610E+02  (-0.4527294E+01)
 number of electron      59.9999999 magnetization 
 augmentation part       -0.2074633 magnetization 

 Free energy of the ion-electron system (eV)
  ---------------------------------------------------
  alpha Z        PSCENC =        55.52509218
  Ewald energy   TEWEN  =     -1086.26724324
  -Hartree energ DENC   =     -1292.00588395
  -exchange      EXHF   =         0.00000000
  -V(xc)+E(xc)   XCENC  =       214.53301697
  PAW double counting   =     24070.14206227   -24052.13951806
  entropy T*S    EENTRO =        -0.00000000
  eigenvalues    EBANDS =      -382.67287447
  atomic energy  EATOM  =      2335.28761795
  ---------------------------------------------------
  free energy    TOTEN  =      -137.59773036 eV

  energy without entropy =     -137.59773036  energy(sigma->0) =     -137.59773036


--------------------------------------------------------------------------------------------------------




--------------------------------------- Iteration      1(   7)  ---------------------------------------


    POTLOK:  cpu time      0.0415: real time      0.0415
    SETDIJ:  cpu time      0.2653: real time      0.2653
    TRIAL :  cpu time      1.5825: real time      1.5833
    CORREC:  cpu time      1.0268: real time      1.0273
    CHARGE:  cpu time      0.1482: real time      0.1482
    --------------------------------------------
      LOOP:  cpu time      3.0790: real time      3.0945

 eigenvalue-minimisations  :     0
 total energy-change (2. order) :-0.4527835E+01  (-0.5208968E+00)
 number of electron      59.9999999 magnetization 
 augmentation part       -0.2193915 magnetization 

 Free energy of the ion-electron system (eV)
  ---------------------------------------------------
  alpha Z        PSCENC =        55.52509218
  Ewald energy   TEWEN  =     -1086.26724324
  -Hartree energ DENC   =     -1189.31006020
  -exchange      EXHF   =         0.00000000
  -V(xc)+E(xc)   XCENC  =       207.41980531
  PAW double counting   =     30333.92077255   -30314.94680215
  entropy T*S    EENTRO =        -0.00000000
  eigenvalues    EBANDS =      -483.75474798
  atomic energy  EATOM  =      2335.28761795
  ---------------------------------------------------
  free energy    TOTEN  =      -142.12556558 eV

  energy without entropy =     -142.12556558  energy(sigma->0) =     -142.12556558


--------------------------------------------------------------------------------------------------------




--------------------------------------- Iteration      1(   8)  ---------------------------------------


    POTLOK:  cpu time      0.0414: real time      0.0414
    SETDIJ:  cpu time      0.2647: real time      0.2647
    TRIAL :  cpu time      1.6108: real time      1.6117
    CORREC:  cpu time      0.9767: real time      0.9772
    CHARGE:  cpu time      0.1493: real time      0.1493
    --------------------------------------------
      LOOP:  cpu time      3.0617: real time      3.0738

 eigenvalue-minimisations  :     0
 total energy-change (2. order) :-0.5206255E+00  (-0.1655775E+00)
 number of electron      59.9999999 magnetization 
 augmentation part       -0.2165877 magnetization 

 Free energy of the ion-electron system (eV)
  ---------------------------------------------------
  alpha Z        PSCENC =        55.52509218
  Ewald energy   TEWEN  =     -1086.26724324
  -Hartree energ DENC   =     -1183.25604917
  -exchange      EXHF   =         0.00000000
  -V(xc)+E(xc)   XCENC  =       206.97729996
  PAW double counting   =     33489.92460447   -33470.85044578
  entropy T*S    EENTRO =        -0.00000000
  eigenvalues    EBANDS =      -489.98706749
  atomic energy  EATOM  =      2335.28761795
  ---------------------------------------------------
  free energy    TOTEN  =      -142.64619112 eV

  energy without entropy =     -142.64619112  energy(sigma->0) =     -142.64619112


--------------------------------------------------------------------------------------------------------




--------------------------------------- Iteration      1(   9)  ---------------------------------------


    POTLOK:  cpu time      0.0415: real time      0.0415
    SETDIJ:  cpu time      0.2650: real time      0.2650
    TRIAL :  cpu time      1.5692: real time      1.5700
    CORREC:  cpu time      0.9777: real time      0.9782
    CHARGE:  cpu time      0.1485: real time      0.1485
    --------------------------------------------
      LOOP:  cpu time      3.0156: real time      3.0319

 eigenvalue-minimisations  :     0
 total energy-change (2. order) :-0.1651875E+00  (-0.5672849E-01)
 number of electron      59.9999999 magnetization 
 augmentation part       -0.2143374 magnetization 

 Free energy of the ion-electron system (eV)
  ---------------------------------------------------
  alpha Z        PSCENC =        55.52509218
  Ewald energy   TEWEN  =     -1086.26724324
  -Hartree energ DENC   =     -1180.79752728
  -exchange      EXHF   =         0.00000000
  -V(xc)+E(xc)   XCENC  =       206.84989994
  PAW double counting   =     34916.33772285   -34897.22771829
  entropy T*S    EENTRO =        -0.00000000
  eigenvalues    EBANDS =      -492.51922271
  atomic energy  EATOM  =      2335.28761795
  ---------------------------------------------------
  free energy    TOTEN  =      -142.81137861 eV

  energy without entropy =     -142.81137861  energy(sigma->0) =     -142.81137861


--------------------------------------------------------------------------------------------------------




--------------------------------------- Iteration      1(  10)  ---------------------------------------


    POTLOK:  cpu time      0.0416: real time      0.0416
    SETDIJ:  cpu time      0.2649: real time      0.2649
    TRIAL :  cpu time      1.5656: real time      1.5670
    CORREC:  cpu time      0.9778: real time      0.9784
    CHARGE:  cpu time      0.1508: real time      0.1508
    --------------------------------------------
      LOOP:  cpu time      3.0147: real time      3.0311

 eigenvalue-minimisations  :     0
 total energy-change (2. order) :-0.5658005E-01  (-0.1448552E-01)
 number of electron      59.9999999 magnetization 
 augmentation part       -0.2140077 magnetization 

 Free energy of the ion-electron system (eV)
  ---------------------------------------------------
  alpha Z        PSCENC =        55.52509218
  Ewald energy   TEWEN  =     -1086.26724324
  -Hartree energ DENC   =     -1177.66799942
  -exchange      EXHF   =         0.00000000
  -V(xc)+E(xc)   XCENC  =       206.70210525
  PAW double counting   =     34871.35402993   -34852.24116654
  entropy T*S    EENTRO =        -0.00000000
  eigenvalues    EBANDS =      -495.56039478
  atomic energy  EATOM  =      2335.28761795
  ---------------------------------------------------
  free energy    TOTEN  =      -142.86795866 eV

  energy without entropy =     -142.86795866  energy(sigma->0) =     -142.86795866


--------------------------------------------------------------------------------------------------------




--------------------------------------- Iteration      1(  11)  ---------------------------------------


    POTLOK:  cpu time      0.0413: real time      0.0413
    SETDIJ:  cpu time      0.2654: real time      0.2654
    TRIAL :  cpu time      1.6350: real time      1.6361
    CORREC:  cpu time      0.9780: real time      0.9785
    CHARGE:  cpu time      0.1482: real time      0.1482
    --------------------------------------------
      LOOP:  cpu time      3.0855: real time      3.0998

 eigenvalue-minimisations  :     0
 total energy-change (2. order) :-0.1446221E-01  (-0.3045762E-02)
 number of electron      59.9999999 magnetization 
 augmentation part       -0.2139324 magnetization 

 Free energy of the ion-electron system (eV)
  ---------------------------------------------------
  alpha Z        PSCENC =        55.52509218
  Ewald energy   TEWEN  =     -1086.26724324
  -Hartree energ DENC   =     -1177.26680542
  -exchange      EXHF   =         0.00000000
  -V(xc)+E(xc)   XCENC  =       206.66585878
  PAW double counting   =     34421.19318560   -34402.09579028
  entropy T*S    EENTRO =        -0.00000000
  eigenvalues    EBANDS =      -495.92433643
  atomic energy  EATOM  =      2335.28761795
  ---------------------------------------------------
  free energy    TOTEN  =      -142.88242087 eV

  energy without entropy =     -142.88242087  energy(sigma->0) =     -142.88242087


--------------------------------------------------------------------------------------------------------




--------------------------------------- Iteration      1(  12)  ---------------------------------------


    POTLOK:  cpu time      0.0414: real time      0.0414
    SETDIJ:  cpu time      0.2649: real time      0.2649
    TRIAL :  cpu time      1.9674: real time      1.9684
    CORREC:  cpu time      1.0743: real time      1.0748
    CHARGE:  cpu time      0.1489: real time      0.1489
    --------------------------------------------
      LOOP:  cpu time      3.5092: real time      3.5272

 eigenvalue-minimisations  :     0
 total energy-change (2. order) :-0.3040023E-02  (-0.6648538E-03)
 number of electron      59.9999999 magnetization 
 augmentation part       -0.2141081 magnetization 

 Free energy of the ion-electron system (eV)
  ---------------------------------------------------
  alpha Z        PSCENC =        55.52509218
  Ewald energy   TEWEN  =     -1086.26724324
  -Hartree energ DENC   =     -1177.13243836
  -exchange      EXHF   =         0.00000000
  -V(xc)+E(xc)   XCENC  =       206.63697082
  PAW double counting   =     34216.68740659   -34197.59285949
  entropy T*S    EENTRO =        -0.00000000
  eigenvalues    EBANDS =      -496.03000734
  atomic energy  EATOM  =      2335.28761795
  ---------------------------------------------------
  free energy    TOTEN  =      -142.88546089 eV

  energy without entropy =     -142.88546089  energy(sigma->0) =     -142.88546089


--------------------------------------------------------------------------------------------------------




--------------------------------------- Iteration      1(  13)  ---------------------------------------


    POTLOK:  cpu time      0.0412: real time      0.0412
    SETDIJ:  cpu time      0.2649: real time      0.2649
    TRIAL :  cpu time      1.6719: real time      1.6724
    CORREC:  cpu time      0.9751: real time      0.9757
    CHARGE:  cpu time      0.1491: real time      0.1496
    --------------------------------------------
      LOOP:  cpu time      3.1180: real time      3.1327

 eigenvalue-minimisations  :     0
 total energy-change (2. order) :-0.6623182E-03  (-0.1416803E-03)
 number of electron      59.9999999 magnetization 
 augmentation part       -0.2141869 magnetization 

 Free energy of the ion-electron system (eV)
  ---------------------------------------------------
  alpha Z        PSCENC =        55.52509218
  Ewald energy   TEWEN  =     -1086.26724324
  -Hartree energ DENC   =     -1177.07054321
  -exchange      EXHF   =         0.00000000
  -V(xc)+E(xc)   XCENC  =       206.62958368
  PAW double counting   =     34149.65753534   -34130.56291446
  entropy T*S    EENTRO =        -0.00000000
  eigenvalues    EBANDS =      -496.08525146
  atomic energy  EATOM  =      2335.28761795
  ---------------------------------------------------
  free energy    TOTEN  =      -142.88612321 eV

  energy without entropy =     -142.88612321  energy(sigma->0) =     -142.88612321


--------------------------------------------------------------------------------------------------------




--------------------------------------- Iteration      1(  14)  ---------------------------------------


    POTLOK:  cpu time      0.0412: real time      0.0412
    SETDIJ:  cpu time      0.2658: real time      0.2658
    TRIAL :  cpu time      1.5674: real time      1.5679
    CORREC:  cpu time      0.9759: real time      0.9762
    CHARGE:  cpu time      0.1486: real time      0.1490
    --------------------------------------------
      LOOP:  cpu time      3.0133: real time      3.0304

 eigenvalue-minimisations  :     0
 total energy-change (2. order) :-0.1407384E-03  (-0.3237161E-04)
 number of electron      59.9999999 magnetization 
 augmentation part       -0.2141810 magnetization 

 Free energy of the ion-electron system (eV)
  ---------------------------------------------------
  alpha Z        PSCENC =        55.52509218
  Ewald energy   TEWEN  =     -1086.26724324
  -Hartree energ DENC   =     -1177.13958341
  -exchange      EXHF   =         0.00000000
  -V(xc)+E(xc)   XCENC  =       206.63302734
  PAW double counting   =     34127.71788884   -34108.62345154
  entropy T*S    EENTRO =        -0.00000000
  eigenvalues    EBANDS =      -496.01961207
  atomic energy  EATOM  =      2335.28761795
  ---------------------------------------------------
  free energy    TOTEN  =      -142.88626395 eV

  energy without entropy =     -142.88626395  energy(sigma->0) =     -142.88626395


--------------------------------------------------------------------------------------------------------




--------------------------------------- Iteration      1(  15)  ---------------------------------------


    POTLOK:  cpu time      0.0412: real time      0.0412
    SETDIJ:  cpu time      0.2656: real time      0.2656
    TRIAL :  cpu time      1.5688: real time      1.5697
    CORREC:  cpu time      0.9773: real time      0.9778
    CHARGE:  cpu time      0.1509: real time      0.1510
    --------------------------------------------
      LOOP:  cpu time      3.0205: real time      3.0353

 eigenvalue-minimisations  :     0
 total energy-change (2. order) :-0.3258501E-04  (-0.7784772E-05)
 number of electron      59.9999999 magnetization 
 augmentation part       -0.2141552 magnetization 

 Free energy of the ion-electron system (eV)
  ---------------------------------------------------
  alpha Z        PSCENC =        55.52509218
  Ewald energy   TEWEN  =     -1086.26724324
  -Hartree energ DENC   =     -1177.15414805
  -exchange      EXHF   =         0.00000000
  -V(xc)+E(xc)   XCENC  =       206.63274329
  PAW double counting   =     34120.21143712   -34101.11677444
  entropy T*S    EENTRO =        -0.00000000
  eigenvalues    EBANDS =      -496.00502134
  atomic energy  EATOM  =      2335.28761795
  ---------------------------------------------------
  free energy    TOTEN  =      -142.88629653 eV

  energy without entropy =     -142.88629653  energy(sigma->0) =     -142.88629653


--------------------------------------------------------------------------------------------------------




--------------------------------------- Iteration      1(  16)  ---------------------------------------


    POTLOK:  cpu time      0.0413: real time      0.0413
    SETDIJ:  cpu time      0.2660: real time      0.2660
    TRIAL :  cpu time      1.5661: real time      1.5671
    CORREC:  cpu time      0.9769: real time      0.9774
    CHARGE:  cpu time      0.1964: real time      0.1965
    --------------------------------------------
      LOOP:  cpu time      3.0622: real time      3.0776

 eigenvalue-minimisations  :     0
 total energy-change (2. order) :-0.8018051E-05  (-0.2136143E-05)
 number of electron      59.9999999 magnetization 
 augmentation part       -0.2141402 magnetization 

 Free energy of the ion-electron system (eV)
  ---------------------------------------------------
  alpha Z        PSCENC =        55.52509218
  Ewald energy   TEWEN  =     -1086.26724324
  -Hartree energ DENC   =     -1177.16476569
  -exchange      EXHF   =         0.00000000
  -V(xc)+E(xc)   XCENC  =       206.63340149
  PAW double counting   =     34117.99413565   -34098.89950760
  entropy T*S    EENTRO =        -0.00000000
  eigenvalues    EBANDS =      -495.99503529
  atomic energy  EATOM  =      2335.28761795
  ---------------------------------------------------
  free energy    TOTEN  =      -142.88630455 eV

  energy without entropy =     -142.88630455  energy(sigma->0) =     -142.88630455


--------------------------------------------------------------------------------------------------------




--------------------------------------- Iteration      1(  17)  ---------------------------------------


    POTLOK:  cpu time      0.0417: real time      0.0417
    SETDIJ:  cpu time      0.2745: real time      0.2745
    TRIAL :  cpu time      1.9024: real time      1.9035
    CORREC:  cpu time      0.9812: real time      0.9817
    CHARGE:  cpu time      0.1489: real time      0.1489
    --------------------------------------------
      LOOP:  cpu time      3.3635: real time      3.3803

 eigenvalue-minimisations  :     0
 total energy-change (2. order) :-0.2225239E-05  (-0.5227994E-06)
 number of electron      59.9999999 magnetization 
 augmentation part       -0.2141350 magnetization 

 Free energy of the ion-electron system (eV)
  ---------------------------------------------------
  alpha Z        PSCENC =        55.52509218
  Ewald energy   TEWEN  =     -1086.26724324
  -Hartree energ DENC   =     -1177.17394778
  -exchange      EXHF   =         0.00000000
  -V(xc)+E(xc)   XCENC  =       206.63414178
  PAW double counting   =     34119.05850050   -34099.96390166
  entropy T*S    EENTRO =        -0.00000000
  eigenvalues    EBANDS =      -495.98656650
  atomic energy  EATOM  =      2335.28761795
  ---------------------------------------------------
  free energy    TOTEN  =      -142.88630678 eV

  energy without entropy =     -142.88630678  energy(sigma->0) =     -142.88630678


--------------------------------------------------------------------------------------------------------




--------------------------------------- Iteration      1(  18)  ---------------------------------------


    POTLOK:  cpu time      0.0412: real time      0.0412
    SETDIJ:  cpu time      0.2657: real time      0.2657
    TRIAL :  cpu time      1.5644: real time      1.5655
    CORREC:  cpu time      1.0581: real time      1.0587
    CHARGE:  cpu time      0.1479: real time      0.1479
    --------------------------------------------
      LOOP:  cpu time      3.1062: real time      3.1080

 eigenvalue-minimisations  :     0
 total energy-change (2. order) :-0.5544025E-06  (-0.1454172E-06)
 number of electron      59.9999999 magnetization 
 augmentation part       -0.2141312 magnetization 

 Free energy of the ion-electron system (eV)
  ---------------------------------------------------
  alpha Z        PSCENC =        55.52509218
  Ewald energy   TEWEN  =     -1086.26724324
  -Hartree energ DENC   =     -1177.17328811
  -exchange      EXHF   =         0.00000000
  -V(xc)+E(xc)   XCENC  =       206.63413274
  PAW double counting   =     34120.79628742   -34101.70165822
  entropy T*S    EENTRO =        -0.00000000
  eigenvalues    EBANDS =      -495.98724805
  atomic energy  EATOM  =      2335.28761795
  ---------------------------------------------------
  free energy    TOTEN  =      -142.88630733 eV

  energy without entropy =     -142.88630733  energy(sigma->0) =     -142.88630733


--------------------------------------------------------------------------------------------------------




--------------------------------------- Iteration      1(  19)  ---------------------------------------


    POTLOK:  cpu time      0.0411: real time      0.0411
    SETDIJ:  cpu time      0.2645: real time      0.2650
    TRIAL :  cpu time      1.5683: real time      1.5689
    CORREC:  cpu time      0.9759: real time      0.9764
    CHARGE:  cpu time      0.1487: real time      0.1487
    --------------------------------------------
      LOOP:  cpu time      3.0149: real time      3.0289

 eigenvalue-minimisations  :     0
 total energy-change (2. order) :-0.1527260E-06  (-0.4681475E-07)
 number of electron      59.9999999 magnetization 
 augmentation part       -0.2141285 magnetization 

 Free energy of the ion-electron system (eV)
  ---------------------------------------------------
  alpha Z        PSCENC =        55.52509218
  Ewald energy   TEWEN  =     -1086.26724324
  -Hartree energ DENC   =     -1177.17372213
  -exchange      EXHF   =         0.00000000
  -V(xc)+E(xc)   XCENC  =       206.63417712
  PAW double counting   =     34121.78012571   -34102.68550314
  entropy T*S    EENTRO =        -0.00000000
  eigenvalues    EBANDS =      -495.98685195
  atomic energy  EATOM  =      2335.28761795
  ---------------------------------------------------
  free energy    TOTEN  =      -142.88630748 eV

  energy without entropy =     -142.88630748  energy(sigma->0) =     -142.88630748


--------------------------------------------------------------------------------------------------------




--------------------------------------- Iteration      1(  20)  ---------------------------------------


    POTLOK:  cpu time      0.0411: real time      0.0411
    SETDIJ:  cpu time      0.2652: real time      0.2656
    TRIAL :  cpu time      1.5699: real time      1.5705
    CORREC:  cpu time      0.9767: real time      0.9772
    EDDIAG:  cpu time      0.5199: real time      0.5209
    CHARGE:  cpu time      0.1506: real time      0.1506
    --------------------------------------------
      LOOP:  cpu time      3.5380: real time      3.5556

 eigenvalue-minimisations  :     0
 total energy-change (2. order) :-0.4870162E-07  (-0.1364926E-07)
 number of electron      59.9999999 magnetization 
 augmentation part       -0.2141272 magnetization 

 Free energy of the ion-electron system (eV)
  ---------------------------------------------------
  alpha Z        PSCENC =        55.52509218
  Ewald energy   TEWEN  =     -1086.26724324
  -Hartree energ DENC   =     -1177.17404175
  -exchange      EXHF   =         0.00000000
  -V(xc)+E(xc)   XCENC  =       206.63420855
  PAW double counting   =     34122.21284307   -34103.11823063
  entropy T*S    EENTRO =        -0.00000000
  eigenvalues    EBANDS =      -495.98655365
  atomic energy  EATOM  =      2335.28761795
  ---------------------------------------------------
  free energy    TOTEN  =      -142.88630753 eV

  energy without entropy =     -142.88630753  energy(sigma->0) =     -142.88630753


--------------------------------------------------------------------------------------------------------


  average scaling for gradient   1.0742


 average (electrostatic) potential at core
  the test charge radii are     0.5902  0.5770  0.4325
  (the norm of the test charge is              1.0000)
       1-101.6500       2-101.6500       3-101.6500       4-101.6500       5 -84.0853
       6 -84.0853       7 -84.0853       8 -84.0853       9 -84.0854      10 -84.0852
      11 -84.0854      12 -84.0852      13 -42.1054      14 -42.1054      15 -42.1049
      16 -42.1048      17 -42.1047      18 -42.1053      19 -42.1047      20 -42.1055



 E-fermi :  -0.0882     XC(G=0):  -8.5354     alpha+bet : -7.0301

 Fermi energy:        -0.0882223062

 k-point     1 :       0.0000    0.0000    0.0000
  band No.  band energies     occupation 
      1     -20.5389      2.00000
      2     -20.4694      2.00000
      3     -18.6054      2.00000
      4     -18.4916      2.00000
      5     -14.9499      2.00000
      6     -14.8564      2.00000
      7     -11.9351      2.00000
      8     -11.7531      2.00000
      9     -11.7447      2.00000
     10     -11.4794      2.00000
     11      -8.6787      2.00000
     12      -7.8554      2.00000
     13      -7.7791      2.00000
     14      -7.7026      2.00000
     15      -7.3790      2.00000
     16      -7.0595      2.00000
     17      -5.5638      2.00000
     18      -5.3556      2.00000
     19      -5.0006      2.00000
     20      -4.9567      2.00000
     21      -4.1343      2.00000
     22      -4.1278      2.00000
     23      -2.8964      2.00000
     24      -2.7746      2.00000
     25      -2.5662      2.00000
     26      -2.4682      2.00000
     27      -1.9225      2.00000
     28      -1.7162      2.00000
     29      -1.4780      2.00000
     30      -0.1682      2.00000
     31       3.1641      0.00000
     32       3.2051      0.00000
     33       3.5308      0.00000
     34       4.0879      0.00000
     35       5.5963      0.00000
     36       6.5386      0.00000
     37       7.6888      0.00000
     38       7.9160      0.00000
     39       7.9221      0.00000
     40       7.9613      0.00000
     41       8.1641      0.00000
     42       9.1236      0.00000
     43       9.3993      0.00000
     44       9.8671      0.00000

 k-point     2 :       0.3333    0.0000    0.0000
  band No.  band energies     occupation 
      1     -20.5222      2.00000
      2     -20.4875      2.00000
      3     -18.5764      2.00000
      4     -18.5195      2.00000
      5     -14.9275      2.00000
      6     -14.8808      2.00000
      7     -11.8895      2.00000
      8     -11.7944      2.00000
      9     -11.6858      2.00000
     10     -11.5491      2.00000
     11      -8.5232      2.00000
     12      -8.1075      2.00000
     13      -7.8331      2.00000
     14      -7.7951      2.00000
     15      -7.1171      2.00000
     16      -7.0326      2.00000
     17      -5.4857      2.00000
     18      -5.3640      2.00000
     19      -5.0709      2.00000
     20      -5.0299      2.00000
     21      -4.0820      2.00000
     22      -4.0794      2.00000
     23      -2.8823      2.00000
     24      -2.8208      2.00000
     25      -2.6483      2.00000
     26      -2.6470      2.00000
     27      -1.8290      2.00000
     28      -1.7500      2.00000
     29      -1.0710      2.00000
     30      -0.4403      2.00000
     31       3.1773      0.00000
     32       3.1980      0.00000
     33       3.6636      0.00000
[...]
     44      10.0037      0.00000

 k-point    47 :       0.3333   -0.2000   -0.4286
  band No.  band energies     occupation 
      1     -20.4080      2.00000
      2     -20.4015      2.00000
      3     -18.4837      2.00000
      4     -18.4733      2.00000
      5     -14.9196      2.00000
      6     -14.9099      2.00000
      7     -11.7565      2.00000
      8     -11.7295      2.00000
      9     -11.6234      2.00000
     10     -11.6004      2.00000
     11      -8.1180      2.00000
     12      -8.0209      2.00000
     13      -7.8428      2.00000
     14      -7.8335      2.00000
     15      -7.0107      2.00000
     16      -6.9663      2.00000
     17      -6.1119      2.00000
     18      -6.0675      2.00000
     19      -5.6310      2.00000
     20      -5.5361      2.00000
     21      -4.3393      2.00000
     22      -4.2636      2.00000
     23      -3.5334      2.00000
     24      -3.5250      2.00000
     25      -2.5074      2.00000
     26      -2.4519      2.00000
     27      -1.8966      2.00000
     28      -1.8720      2.00000
     29      -0.8353      2.00000
     30      -0.7084      2.00000
     31       2.6945      0.00000
     32       2.7113      0.00000
     33       3.6015      0.00000
     34       3.6459      0.00000
     35       6.9413      0.00000
     36       7.2335      0.00000
     37       7.3498      0.00000
     38       7.4112      0.00000
     39       8.2543      0.00000
     40       8.2911      0.00000
     41       9.0173      0.00000
     42       9.4724      0.00000
     43       9.6549      0.00000
     44       9.9776      0.00000

 k-point    48 :       0.0000    0.4000    0.4286
  band No.  band energies     occupation 
      1     -20.4042      2.00000
      2     -20.3992      2.00000
      3     -18.4809      2.00000
      4     -18.4729      2.00000
      5     -14.9498      2.00000
      6     -14.9427      2.00000
      7     -11.6874      2.00000
      8     -11.6711      2.00000
      9     -11.6664      2.00000
     10     -11.6481      2.00000
     11      -8.0318      2.00000
     12      -7.9615      2.00000
     13      -7.8579      2.00000
     14      -7.8387      2.00000
     15      -6.9200      2.00000
     16      -6.8707      2.00000
     17      -6.2169      2.00000
     18      -6.1870      2.00000
     19      -5.5829      2.00000
     20      -5.5266      2.00000
     21      -4.4803      2.00000
     22      -4.4297      2.00000
     23      -3.4880      2.00000
     24      -3.4684      2.00000
     25      -2.4791      2.00000
     26      -2.4455      2.00000
     27      -1.8368      2.00000
     28      -1.8180      2.00000
     29      -0.8363      2.00000
     30      -0.7392      2.00000
     31       2.6113      0.00000
     32       2.6167      0.00000
     33       3.7444      0.00000
     34       3.7818      0.00000
     35       6.7644      0.00000
     36       6.9476      0.00000
     37       7.1332      0.00000
     38       7.1645      0.00000
     39       8.3173      0.00000
     40       8.4137      0.00000
     41       9.3440      0.00000
     42       9.5126      0.00000
     43       9.7892      0.00000
     44       9.9791      0.00000

 k-point    49 :       0.0000   -0.4000    0.4286
  band No.  band energies     occupation 
      1     -20.4042      2.00000
      2     -20.3992      2.00000
      3     -18.4809      2.00000
      4     -18.4729      2.00000
      5     -14.9499      2.00000
      6     -14.9426      2.00000
      7     -11.6872      2.00000
      8     -11.6713      2.00000
      9     -11.6663      2.00000
     10     -11.6481      2.00000
     11      -8.0318      2.00000
     12      -7.9615      2.00000
     13      -7.8579      2.00000
     14      -7.8387      2.00000
     15      -6.9201      2.00000
     16      -6.8706      2.00000
     17      -6.2169      2.00000
     18      -6.1870      2.00000
     19      -5.5830      2.00000
     20      -5.5266      2.00000
     21      -4.4799      2.00000
     22      -4.4301      2.00000
     23      -3.4882      2.00000
     24      -3.4683      2.00000
     25      -2.4792      2.00000
     26      -2.4454      2.00000
     27      -1.8367      2.00000
     28      -1.8181      2.00000
     29      -0.8363      2.00000
     30      -0.7391      2.00000
     31       2.6115      0.00000
     32       2.6164      0.00000
     33       3.7443      0.00000
     34       3.7819      0.00000
     35       6.7644      0.00000
     36       6.9476      0.00000
     37       7.1332      0.00000
     38       7.1645      0.00000
     39       8.3181      0.00000
     40       8.4139      0.00000
     41       9.3379      0.00000
     42       9.4785      0.00000
     43       9.7487      0.00000
     44       9.8851      0.00000

 k-point    50 :       0.3333    0.4000    0.4286
  band No.  band energies     occupation 
      1     -20.4029      2.00000
      2     -20.4004      2.00000
      3     -18.4789      2.00000
      4     -18.4749      2.00000
      5     -14.9484      2.00000
      6     -14.9438      2.00000
      7     -11.7004      2.00000
      8     -11.6771      2.00000
      9     -11.6534      2.00000
     10     -11.6401      2.00000
     11      -8.0354      2.00000
     12      -8.0005      2.00000
     13      -7.8568      2.00000
     14      -7.8481      2.00000
     15      -6.8679      2.00000
     16      -6.8500      2.00000
     17      -6.1595      2.00000
     18      -6.1297      2.00000
     19      -5.6920      2.00000
     20      -5.6373      2.00000
     21      -4.3779      2.00000
     22      -4.3289      2.00000
     23      -3.5264      2.00000
     24      -3.5161      2.00000
     25      -2.5796      2.00000
     26      -2.5414      2.00000
     27      -1.7881      2.00000
     28      -1.7753      2.00000
     29      -0.7649      2.00000
     30      -0.7146      2.00000
     31       2.6195      0.00000
     32       2.6288      0.00000
     33       3.7272      0.00000
     34       3.7459      0.00000
     35       6.8568      0.00000
     36       7.0396      0.00000
     37       7.1226      0.00000
     38       7.1428      0.00000
     39       8.2360      0.00000
     40       8.3500      0.00000
     41       8.7784      0.00000
     42       9.2140      0.00000
     43       9.4057      0.00000
     44       9.5797      0.00000

 k-point    51 :      -0.3333   -0.4000    0.4286
  band No.  band energies     occupation 
      1     -20.4029      2.00000
      2     -20.4004      2.00000
      3     -18.4789      2.00000
      4     -18.4749      2.00000
      5     -14.9484      2.00000
      6     -14.9437      2.00000
      7     -11.7002      2.00000
      8     -11.6774      2.00000
      9     -11.6535      2.00000
     10     -11.6400      2.00000
     11      -8.0354      2.00000
     12      -8.0005      2.00000
     13      -7.8568      2.00000
     14      -7.8481      2.00000
     15      -6.8679      2.00000
     16      -6.8500      2.00000
     17      -6.1595      2.00000
     18      -6.1297      2.00000
     19      -5.6921      2.00000
     20      -5.6372      2.00000
     21      -4.3774      2.00000
     22      -4.3293      2.00000
     23      -3.5267      2.00000
     24      -3.5159      2.00000
     25      -2.5797      2.00000
     26      -2.5414      2.00000
     27      -1.7879      2.00000
     28      -1.7754      2.00000
     29      -0.7650      2.00000
     30      -0.7145      2.00000
     31       2.6198      0.00000
     32       2.6285      0.00000
     33       3.7271      0.00000
     34       3.7460      0.00000
     35       6.8568      0.00000
     36       7.0396      0.00000
     37       7.1226      0.00000
     38       7.1429      0.00000
     39       8.2359      0.00000
     40       8.3499      0.00000
     41       8.7789      0.00000
     42       9.2088      0.00000
     43       9.4050      0.00000
     44       9.5811      0.00000

 k-point    52 :      -0.3333    0.4000   -0.4286
  band No.  band energies     occupation 
      1     -20.4029      2.00000
      2     -20.4004      2.00000
      3     -18.4790      2.00000
      4     -18.4749      2.00000
      5     -14.9484      2.00000
      6     -14.9437      2.00000
      7     -11.7001      2.00000
      8     -11.6774      2.00000
      9     -11.6536      2.00000
     10     -11.6399      2.00000
     11      -8.0354      2.00000
     12      -8.0005      2.00000
     13      -7.8568      2.00000
     14      -7.8481      2.00000
     15      -6.8679      2.00000
     16      -6.8500      2.00000
     17      -6.1595      2.00000
     18      -6.1298      2.00000
     19      -5.6921      2.00000
     20      -5.6372      2.00000
     21      -4.3774      2.00000
     22      -4.3293      2.00000
     23      -3.5266      2.00000
     24      -3.5159      2.00000
     25      -2.5797      2.00000
     26      -2.5414      2.00000
     27      -1.7879      2.00000
     28      -1.7755      2.00000
     29      -0.7651      2.00000
     30      -0.7145      2.00000
     31       2.6198      0.00000
     32       2.6285      0.00000
     33       3.7271      0.00000
     34       3.7459      0.00000
     35       6.8568      0.00000
     36       7.0396      0.00000
     37       7.1226      0.00000
     38       7.1428      0.00000
     39       8.2361      0.00000
     40       8.3499      0.00000
     41       8.7787      0.00000
     42       9.2096      0.00000
     43       9.4206      0.00000
     44       9.5764      0.00000

 k-point    53 :       0.3333   -0.4000   -0.4286
  band No.  band energies     occupation 
      1     -20.4029      2.00000
      2     -20.4004      2.00000
      3     -18.4789      2.00000
      4     -18.4749      2.00000
      5     -14.9483      2.00000
      6     -14.9438      2.00000
      7     -11.7005      2.00000
      8     -11.6771      2.00000
      9     -11.6533      2.00000
     10     -11.6402      2.00000
     11      -8.0354      2.00000
     12      -8.0005      2.00000
     13      -7.8568      2.00000
     14      -7.8481      2.00000
     15      -6.8678      2.00000
     16      -6.8501      2.00000
     17      -6.1595      2.00000
     18      -6.1297      2.00000
     19      -5.6920      2.00000
     20      -5.6373      2.00000
     21      -4.3778      2.00000
     22      -4.3289      2.00000
     23      -3.5264      2.00000
     24      -3.5161      2.00000
     25      -2.5796      2.00000
     26      -2.5414      2.00000
     27      -1.7881      2.00000
     28      -1.7753      2.00000
     29      -0.7649      2.00000
     30      -0.7146      2.00000
     31       2.6195      0.00000
     32       2.6288      0.00000
     33       3.7272      0.00000
     34       3.7459      0.00000
     35       6.8568      0.00000
     36       7.0396      0.00000
     37       7.1226      0.00000
     38       7.1429      0.00000
     39       8.2360      0.00000
     40       8.3505      0.00000
     41       8.7820      0.00000
     42       9.2133      0.00000
     43       9.4088      0.00000
     44       9.5973      0.00000


--------------------------------------------------------------------------------------------------------


 soft charge-density along one line, spin component           1
         0         1         2         3         4         5         6         7         8         9
 total charge-density along one line

 pseudopotential strength for first ion, spin component:           1
 19.849  27.794   0.000   0.000  -0.070   0.000   0.000  -0.105
 27.794  38.920   0.000   0.000  -0.098   0.000   0.000  -0.147
  0.000   0.000  -5.813  -0.006  -0.000  -8.719  -0.009  -0.000
  0.000   0.000  -0.006  -5.803   0.000  -0.009  -8.703   0.000
 -0.070  -0.098  -0.000   0.000  -5.839  -0.000   0.000  -8.758
  0.000   0.000  -8.719  -0.009  -0.000 -13.057  -0.014  -0.000
  0.000   0.000  -0.009  -8.703   0.000  -0.014 -13.032   0.000
 -0.105  -0.147  -0.000   0.000  -8.758  -0.000   0.000 -13.116
 total augmentation occupancy for first ion, spin component:           1
 12.997  -6.508   0.000   0.000  -5.483  -0.000  -0.000   2.671
 -6.508   3.534  -0.000  -0.000   3.580   0.000   0.000  -1.577
  0.000  -0.000   9.820   2.242   0.000  -4.358  -1.155  -0.000
  0.000  -0.000   2.242   5.745   0.000  -1.155  -2.255  -0.000
 -5.483   3.580   0.000   0.000   6.862  -0.000  -0.000  -2.566
 -0.000   0.000  -4.358  -1.155  -0.000   1.958   0.580   0.000
 -0.000   0.000  -1.155  -2.255  -0.000   0.580   0.901   0.000
  2.671  -1.577  -0.000  -0.000  -2.566   0.000   0.000   1.046


------------------------ aborting loop because EDIFF is reached ----------------------------------------


    FORLOC:  cpu time      0.0050: real time      0.0050
    FORNL :  cpu time      0.2450: real time      0.2452
    FORCOR:  cpu time      0.3055: real time      0.3056
    OFIELD:  cpu time      0.0003: real time      0.0003

 VOLUME and BASIS-vectors are now :
 -----------------------------------------------------------------------------
  energy-cutoff  :     1000.00
  volume of cell :      203.64
      direct lattice vectors                 reciprocal lattice vectors
     9.325000000  0.000000000  0.000000000     0.107238606  0.000000000  0.000000000
     0.000000000  5.850000000  0.000000000     0.000000000  0.170940171  0.000000000
     0.000000000  0.000000000  3.733000000     0.000000000  0.000000000  0.267881061

  length of vectors
     9.325000000  5.850000000  3.733000000     0.107238606  0.170940171  0.267881061


 FORCES acting on ions:
    Electron-Ion                     Ewald-Force                    Non-Local-Force
 -----------------------------------------------------------------------------------------------
   -.182E+03 0.147E-02 0.127E-02   0.218E+03 -.168E-02 -.193E-02   -.361E+02 0.543E-03 0.558E-03
   0.182E+03 -.320E-02 0.543E-03   -.218E+03 0.347E-02 -.431E-04   0.361E+02 -.510E-03 -.306E-03
   -.182E+03 0.853E-02 -.521E-02   0.218E+03 -.103E-01 0.532E-02   -.361E+02 -.128E-02 0.847E-03
   0.182E+03 -.686E-02 0.484E-02   -.218E+03 0.851E-02 -.476E-02   0.361E+02 0.138E-02 -.104E-02
   -.437E+02 -.131E+03 -.435E+02   0.417E+02 0.135E+03 0.455E+02   0.197E+01 -.442E+01 -.206E+01
   -.437E+02 0.131E+03 0.435E+02   0.417E+02 -.135E+03 -.455E+02   0.197E+01 0.441E+01 0.206E+01
   0.437E+02 -.131E+03 -.435E+02   -.417E+02 0.135E+03 0.455E+02   -.198E+01 -.441E+01 -.206E+01
   0.437E+02 0.131E+03 0.435E+02   -.417E+02 -.135E+03 -.455E+02   -.198E+01 0.441E+01 0.206E+01
   -.437E+02 0.131E+03 -.435E+02   0.417E+02 -.135E+03 0.455E+02   0.198E+01 0.441E+01 -.206E+01
   0.437E+02 0.131E+03 -.435E+02   -.417E+02 -.135E+03 0.455E+02   -.198E+01 0.441E+01 -.206E+01
   0.437E+02 -.131E+03 0.435E+02   -.417E+02 0.135E+03 -.455E+02   -.198E+01 -.441E+01 0.206E+01
   -.437E+02 -.131E+03 0.435E+02   0.417E+02 0.135E+03 -.455E+02   0.197E+01 -.441E+01 0.206E+01
   -.207E+02 -.437E+02 -.169E+02   0.238E+02 0.482E+02 0.190E+02   -.321E+01 -.470E+01 -.218E+01
   -.207E+02 0.437E+02 0.169E+02   0.238E+02 -.482E+02 -.190E+02   -.321E+01 0.470E+01 0.218E+01
   0.206E+02 -.437E+02 -.169E+02   -.238E+02 0.482E+02 0.190E+02   0.321E+01 -.469E+01 -.218E+01
   0.207E+02 0.437E+02 0.169E+02   -.238E+02 -.482E+02 -.190E+02   0.321E+01 0.469E+01 0.218E+01
   -.207E+02 0.437E+02 -.169E+02   0.238E+02 -.482E+02 0.190E+02   -.321E+01 0.469E+01 -.218E+01
   0.207E+02 0.437E+02 -.169E+02   -.238E+02 -.482E+02 0.190E+02   0.321E+01 0.470E+01 -.218E+01
   0.207E+02 -.437E+02 0.169E+02   -.238E+02 0.482E+02 -.190E+02   0.321E+01 -.469E+01 0.218E+01
   -.207E+02 -.437E+02 0.169E+02   0.238E+02 0.482E+02 -.190E+02   -.321E+01 -.470E+01 0.218E+01
 -----------------------------------------------------------------------------------------------
   0.151E-02 0.330E-03 0.485E-03   0.103E-12 0.924E-13 -.284E-13   -.150E-02 -.326E-03 -.485E-03


 POSITION                                       TOTAL-FORCE (eV/Angst)
 -----------------------------------------------------------------------------------
      1.40499      5.84998      3.73298        -0.405275      0.000332     -0.000100
      7.92001      0.00002      0.00002         0.404780     -0.000244      0.000195
      6.06753      2.92509      1.86644        -0.406751     -0.003013      0.000952
      3.25751      2.92492      1.86655         0.406541      0.003014     -0.000958
      0.69837      1.04338      0.46255        -0.028342     -0.181740     -0.078301
      0.69833      4.80661      3.27042        -0.028415      0.181563      0.078591
      8.62667      1.04336      0.46258         0.028172     -0.178615     -0.077301
      8.62664      4.80665      3.27047         0.027825      0.178572      0.076919
      5.36087      1.88165      2.32904        -0.023038      0.181310     -0.078045
      3.96423      1.88163      2.32910         0.027333      0.179565     -0.077687
      3.96417      3.96836      1.40396         0.023491     -0.180988      0.077959
      5.36082      3.96839      1.40390        -0.027727     -0.180104      0.077925
      1.26653      1.89307      0.85086        -0.107812     -0.196119     -0.085060
      1.26646      3.95691      2.88208        -0.107789      0.195961      0.085115
      8.05853      1.89309      0.85095         0.108373     -0.197003     -0.085620
      8.05845      3.95691      2.88216         0.108535      0.197305      0.085560
      5.92917      1.03196      2.71734        -0.109465      0.197628     -0.085734
      3.39616      1.03191      2.71749         0.107517      0.195840     -0.085154
      3.39587      4.81806      1.01566         0.109445     -0.197690      0.085726
      5.92889      4.81810      1.01552        -0.107399     -0.195573      0.085019
 -----------------------------------------------------------------------------------
    total drift:                                0.000001      0.000004     -0.000000


--------------------------------------------------------------------------------------------------------



  FREE ENERGIE OF THE ION-ELECTRON SYSTEM (eV)
  ---------------------------------------------------
  free  energy   TOTEN  =      -142.88630753 eV

  energy  without entropy=     -142.88630753  energy(sigma->0) =     -142.88630753



--------------------------------------------------------------------------------------------------------


    POTLOK:  cpu time      0.3106: real time      0.3112


--------------------------------------------------------------------------------------------------------


 stress matrix after NEB project (eV)
      0.00000      0.00000      0.00000
      0.00000      0.00000      0.00000
      0.00000      0.00000      0.00000
  FORCES: max atom, RMS     0.406764    0.267830
  FORCE total and by dimension    1.197773    0.406751
  Stress total and by dimension    0.000000    0.000000
     LOOP+:  cpu time     59.3879: real time     59.6733
    4ORBIT:  cpu time      0.0000: real time      0.0000

 total amount of memory used by VASP MPI-rank0    52414. kBytes
=======================================================================

   base      :      30000. kBytes
   nonl-proj :       5289. kBytes
   fftplans  :        868. kBytes
   grid      :       1929. kBytes
   one-center:          3. kBytes
   wavefun   :      14325. kBytes

  
  
 General timing and accounting informations for this job:
 ========================================================
  
                  Total CPU time used (sec):       66.441
                            User time (sec):       64.888
                          System time (sec):        1.552
                         Elapsed time (sec):       70.003
  
                   Maximum memory used (kb):      213640.
                   Average memory used (kb):          N/A
  
                          Minor page faults:        23665
                          Major page faults:          473
                 Voluntary context switches:         3441
