 vasp.6.4.1 05Apr23 (build Jun  6 2023 14:36:51) complex                         
 executed on        HPECrayEX_GCC date 2024.08.20  14:41:51
 running  256 mpi-ranks, with    1 threads/rank, on    2 nodes
 distrk:  each k-point on  256 cores,    1 groups
 distr:  one band on NCORE=  64 cores,    4 groups


--------------------------------------------------------------------------------------------------------


 INCAR:
   ALGO = Conjugate
   NPAR = 4
   ISMEAR = 0
   SIGMA = 0.01
   PREC = Accurate
   EDIFF = 1E-7
   ENCUT = 1000
   ISIF = 0
   GGA = OR
   LUSE_VDW = .TRUE.
   AGGAC = 0.0000
   LASPH = .TRUE.
   LWAVE = .FALSE.
   LCHARGE = .FALSE.

 POTCAR:    PAW_PBE N_h 06Feb2004                 
 POTCAR:    PAW_PBE C_h 06Feb2004                 
 POTCAR:    PAW_PBE H_h 06Feb2004                 
 -----------------------------------------------------------------------------
|                                                                             |
|               ----> ADVICE to this user running VASP <----                  |
|                                                                             |
|     You have switched on vdW-DFT.                                           |
|     This routine was written and supplied by Jiri Klimes. We recommend      |
|     that you carefully read and cite the following publications:            |
|       J. Klimes, D.R. Bowler, A. Michelides                                 |
|          J. Phys.: Cond Matt. 22 022201 (2010)                              |
|       J. Klimes, D.R. Bowler, A. Michelides                                 |
|          Phys. Rev. B. 83, 195131 (2011)                                    |
|     and references therein.                                                 |
|                                                                             |
 -----------------------------------------------------------------------------

 POTCAR:    PAW_PBE N_h 06Feb2004                 
   VRHFIN =N: s2p3                                                                                  
   LEXCH  = PE                                                                                      
   EATOM  =   264.5486 eV,   19.4438 Ry                                                             
                                                                                                    
   TITEL  = PAW_PBE N_h 06Feb2004                                                                   
   LULTRA =        F    use ultrasoft PP ?                                                          
   IUNSCR =        1    unscreen: 0-lin 1-nonlin 2-no                                               
   RPACOR =    0.800    partial core radius                                                         
   POMASS =   14.001; ZVAL   =    5.000    mass and valenz                                          
   RCORE  =    1.100    outmost cutoff radius                                                       
   RWIGS  =    1.480; RWIGS  =    0.783    wigner-seitz radius (au A)                               
   ENMAX  =  700.000; ENMIN  =  500.000 eV                                                          
   ICORE  =        2    local potential                                                             
   LCOR   =        T    correct aug charges                                                         
   LPAW   =        T    paw PP                                                                      
   EAUG   =  904.640                                                                                
   DEXC   =    0.000                                                                                
   RMAX   =    1.127    core radius for proj-oper                                                   
   RAUG   =    1.300    factor for augmentation sphere                                              
   RDEP   =    1.115    radius for radial grids                                                     
   RDEPT  =    1.106    core radius for aug-charge                                                  
                                                                                                    
   Atomic configuration                                                                             
    4 entries                                                                                       
     n  l   j            E        occ.                                                              
     1  0  0.50      -384.7179   2.0000                                                             
     2  0  0.50       -18.5828   2.0000                                                             
     2  1  0.50        -7.0898   3.0000                                                             
     3  2  1.50        -6.8029   0.0000                                                             
   Description                                                                                      
     l       E           TYP  RCUT    TYP  RCUT                                                     
     0    -18.5828117     23  1.100                                                                 
     0    -15.0750597     23  1.100                                                                 
     1     -7.0897851     23  1.100                                                                 
     1     -1.9663412     23  1.100                                                                 
     2     -6.8029130      7  1.100                                                                 
  local pseudopotential read in
  partial core-charges read in
  partial kinetic energy density read in
  kinetic energy density of atom read in
  atomic valenz-charges read in
  non local Contribution for L=           0  read in
    real space projection operators read in
  non local Contribution for L=           0  read in
    real space projection operators read in
  non local Contribution for L=           1  read in
    real space projection operators read in
  non local Contribution for L=           1  read in
    real space projection operators read in
    PAW grid and wavefunctions read in

   number of l-projection  operators is LMAX  =           4
   number of lm-projection operators is LMMAX =           8

 POTCAR:    PAW_PBE C_h 06Feb2004                 
   VRHFIN =C: s2p2                                                                                  
   LEXCH  = PE                                                                                      
   EATOM  =   147.1560 eV,   10.8157 Ry                                                             
                                                                                                    
   TITEL  = PAW_PBE C_h 06Feb2004                                                                   
   LULTRA =        F    use ultrasoft PP ?                                                          
   IUNSCR =        1    unscreen: 0-lin 1-nonlin 2-no                                               
   RPACOR =    0.800    partial core radius                                                         
   POMASS =   12.011; ZVAL   =    4.000    mass and valenz                                          
   RCORE  =    1.100    outmost cutoff radius                                                       
   RWIGS  =    1.630; RWIGS  =    0.863    wigner-seitz radius (au A)                               
   ENMAX  =  700.000; ENMIN  =  500.000 eV                                                          
   ICORE  =        2    local potential                                                             
   LCOR   =        T    correct aug charges                                                         
   LPAW   =        T    paw PP                                                                      
   EAUG   =  946.768                                                                                
   DEXC   =    0.000                                                                                
   RMAX   =    1.128    core radius for proj-oper                                                   
   RAUG   =    1.300    factor for augmentation sphere                                              
   RDEP   =    1.162    radius for radial grids                                                     
   RDEPT  =    1.088    core radius for aug-charge                                                  
                                                                                                    
   Atomic configuration                                                                             
    4 entries                                                                                       
     n  l   j            E        occ.                                                              
     1  0  0.50      -273.3789   2.0000                                                             
     2  0  0.50       -13.7508   2.0000                                                             
     2  1  0.50        -5.2854   2.0000                                                             
     3  2  1.50        -5.4423   0.0000                                                             
   Description                                                                                      
     l       E           TYP  RCUT    TYP  RCUT                                                     
     0    -13.7508458     23  1.100                                                                 
     0     -8.2022199     23  1.100                                                                 
     1     -5.2854383     23  1.100                                                                 
     1      1.1560700     23  1.100                                                                 
     2     -5.4423304      7  1.100                                                                 
  local pseudopotential read in
  partial core-charges read in
  partial kinetic energy density read in
  atomic valenz-charges read in
  non local Contribution for L=           0  read in
    real space projection operators read in
  non local Contribution for L=           0  read in
    real space projection operators read in
  non local Contribution for L=           1  read in
    real space projection operators read in
  non local Contribution for L=           1  read in
    real space projection operators read in
    PAW grid and wavefunctions read in

   number of l-projection  operators is LMAX  =           4
   number of lm-projection operators is LMMAX =           8

 POTCAR:    PAW_PBE H_h 06Feb2004                 
   VRHFIN =H: ultrasoft test                                                                        
   LEXCH  = PE                                                                                      
   EATOM  =    12.4884 eV,    0.9179 Ry                                                             
                                                                                                    
   TITEL  = PAW_PBE H_h 06Feb2004                                                                   
   LULTRA =        F    use ultrasoft PP ?                                                          
   IUNSCR =        0    unscreen: 0-lin 1-nonlin 2-no                                               
   RPACOR =    0.000    partial core radius                                                         
   POMASS =    1.000; ZVAL   =    1.000    mass and valenz                                          
   RCORE  =    0.800    outmost cutoff radius                                                       
   RWIGS  =    0.700; RWIGS  =    0.370    wigner-seitz radius (au A)                               
   ENMAX  =  700.000; ENMIN  =  350.000 eV                                                          
   RCLOC  =    0.701    cutoff for local pot                                                        
   LCOR   =        T    correct aug charges                                                         
   LPAW   =        T    paw PP                                                                      
   EAUG   = 1000.000                                                                                
   RMAX   =    0.819    core radius for proj-oper                                                   
   RAUG   =    1.000    factor for augmentation sphere                                              
   RDEP   =    0.817    radius for radial grids                                                     
   RDEPT  =    0.817    core radius for aug-charge                                                  
                                                                                                    
   Atomic configuration                                                                             
    2 entries                                                                                       
     n  l   j            E        occ.                                                              
     1  0  0.50        -6.4927   1.0000                                                             
     2  1  0.50        -3.4015   0.0000                                                             
   Description                                                                                      
     l       E           TYP  RCUT    TYP  RCUT                                                     
     0     -6.4927493     23  0.800                                                                 
     0      6.8029130     23  0.800                                                                 
     1     -6.8029130     23  0.800                                                                 
  local pseudopotential read in
  atomic valenz-charges read in
  non local Contribution for L=           0  read in
    real space projection operators read in
  non local Contribution for L=           0  read in
    real space projection operators read in
  non local Contribution for L=           1  read in
    real space projection operators read in
    PAW grid and wavefunctions read in

   number of l-projection  operators is LMAX  =           3
   number of lm-projection operators is LMMAX =           5

 -----------------------------------------------------------------------------
|                                                                             |
|               ----> ADVICE to this user running VASP <----                  |
|                                                                             |
|     You have a (more or less) 'large supercell' and for larger cells it     |
|     might be more efficient to use real-space projection operators.         |
|     Therefore, try LREAL= Auto in the INCAR file.                           |
|     Mind: For very accurate calculation, you might also keep the            |
|     reciprocal projection scheme (i.e. LREAL=.FALSE.).                      |
|                                                                             |
 -----------------------------------------------------------------------------

 -----------------------------------------------------------------------------
|                                                                             |
|               ----> ADVICE to this user running VASP <----                  |
|                                                                             |
|     You enforced a specific xc type in the INCAR file but a different       |
|     type was found in the POTCAR file.                                      |
|     I HOPE YOU KNOW WHAT YOU ARE DOING!                                     |
|                                                                             |
 -----------------------------------------------------------------------------

  PAW_PBE N_h 06Feb2004                 :
 energy of atom  1       EATOM= -264.5486
 kinetic energy error for atom=    0.0081 (will be added to EATOM!!)
  PAW_PBE C_h 06Feb2004                 :
 energy of atom  2       EATOM= -147.1560
 kinetic energy error for atom=    0.0031 (will be added to EATOM!!)
  PAW_PBE H_h 06Feb2004                 :
 energy of atom  3       EATOM=  -12.4884
 kinetic energy error for atom=    0.0006 (will be added to EATOM!!)


 POSCAR:  N  C  H
  positions in cartesian coordinates
  No initial velocities read in
 exchange correlation table for  LEXCH =       41
   RHO(1)=    0.500       N(1)  =     2000
   RHO(2)=  100.500       N(2)  =     4000

 VTST: version 4.1, (05/19/21)

 CHAIN: initializing optimizer
 
 OPT: Using VASP Dynamics algorithm
 CHAIN: Read ICHAIN            0

 POSCAR:  N  C  H
  positions in cartesian coordinates
  No initial velocities read in



--------------------------------------------------------------------------------------------------------


 ion  position               nearest neighbor table
   1  0.151  1.000  1.000-   6 1.34   5 1.34
   2  0.849  0.000  0.000-   7 1.34   8 1.34
   3  0.651  0.500  0.500-  12 1.34   9 1.34
   4  0.349  0.500  0.500-  10 1.34  11 1.34
   5  0.075  0.178  0.124-  13 1.09   1 1.34   7 1.40
   6  0.075  0.822  0.876-  14 1.09   1 1.34   8 1.40
   7  0.925  0.178  0.124-  15 1.09   2 1.34   5 1.40
   8  0.925  0.822  0.876-  16 1.09   2 1.34   6 1.40
   9  0.575  0.322  0.624-  17 1.09   3 1.34  10 1.40
  10  0.425  0.322  0.624-  18 1.09   4 1.34   9 1.40
  11  0.425  0.678  0.376-  19 1.09   4 1.34  12 1.40
  12  0.575  0.678  0.376-  20 1.09   3 1.34  11 1.40
  13  0.136  0.324  0.228-   5 1.09
  14  0.136  0.676  0.772-   6 1.09
  15  0.864  0.324  0.228-   7 1.09
  16  0.864  0.676  0.772-   8 1.09
  17  0.636  0.176  0.728-   9 1.09
  18  0.364  0.176  0.728-  10 1.09
  19  0.364  0.824  0.272-  11 1.09
  20  0.636  0.824  0.272-  12 1.09

  LATTYP: Found a simple orthorhombic cell.
 ALAT       =     3.7330000000
 B/A-ratio  =     1.5671042057
 C/A-ratio  =     2.4979908920
  
  Lattice vectors:
  
 A1 = (   0.0000000000,   0.0000000000,  -3.7330000000)
 A2 = (   0.0000000000,   5.8500000000,   0.0000000000)
 A3 = (   9.3250000000,   0.0000000000,   0.0000000000)


Analysis of symmetry for initial positions (statically):
=====================================================================
 Subroutine PRICEL returns:
 Original cell was already a primitive cell.
 

 Routine SETGRP: Setting up the symmetry group for a 
 simple orthorhombic supercell.


 Subroutine GETGRP returns: Found  2 space group operations
 (whereof  2 operations were pure point group operations)
 out of a pool of  8 trial point group operations.


The static configuration has the point symmetry S_2 .


Analysis of symmetry for dynamics (positions and initial velocities):
=====================================================================
 Subroutine PRICEL returns:
 Original cell was already a primitive cell.
 

 Routine SETGRP: Setting up the symmetry group for a 
 simple orthorhombic supercell.


 Subroutine GETGRP returns: Found  2 space group operations
 (whereof  2 operations were pure point group operations)
 out of a pool of  8 trial point group operations.


The dynamic configuration has the point symmetry S_2 .


 Subroutine INISYM returns: Found  2 space group operations
 (whereof  2 operations are pure point group operations),
 and found     1 'primitive' translations


----------------------------------------------------------------------------------------

                                     Primitive cell                                     

  volume of cell :     203.6398

  direct lattice vectors                    reciprocal lattice vectors
     9.325000000  0.000000000  0.000000000     0.107238606  0.000000000  0.000000000
     0.000000000  5.850000000  0.000000000     0.000000000  0.170940171  0.000000000
     0.000000000  0.000000000  3.733000000     0.000000000  0.000000000  0.267881061

  length of vectors
     9.325000000  5.850000000  3.733000000     0.107238606  0.170940171  0.267881061

  position of ions in fractional coordinates (direct lattice)
     0.150669238  0.999996651  0.999994033
     0.849331286  0.000003349  0.000005967
     0.650673735  0.500015394  0.499984766
     0.349331358  0.499987061  0.500014182
     0.074891730  0.178355258  0.123908041
     0.074887651  0.821642811  0.876083246
     0.925112349  0.178351758  0.123916060
     0.925108503  0.821649483  0.876097782
     0.574892225  0.321650207  0.623904477
     0.425118700  0.321645377  0.623920907
     0.425111975  0.678351562  0.376094536
     0.574886666  0.678357837  0.376077834
     0.135820555  0.323602541  0.227928362
     0.135813324  0.676395330  0.772053947
     0.864185404  0.323605213  0.227952668
     0.864177472  0.676394169  0.772076294
     0.635836396  0.176403555  0.727923881
     0.364199748  0.176395180  0.727963179
     0.364168202  0.823599601  0.272077307
     0.635805652  0.823606609  0.272038715

  ion indices of the primitive-cell ions
   primitive index   ion index
                 1           1
                 2           2
                 3           3
                 4           4
                 5           5
                 6           6
                 7           7
                 8           8
                 9           9
                10          10
                11          11
                12          12
                13          13
                14          14
                15          15
                16          16
                17          17
                18          18
                19          19
                20          20

----------------------------------------------------------------------------------------



 KPOINTS: auto                                    

Automatic generation of k-mesh.
 Grid dimensions read from file:
 generate k-points for:    3    5    7

 Generating k-lattice:

  Cartesian coordinates                     Fractional coordinates (reciprocal lattice)
     0.035746202  0.000000000  0.000000000     0.333333333  0.000000000  0.000000000
     0.000000000  0.034188034  0.000000000     0.000000000  0.200000000  0.000000000
     0.000000000  0.000000000  0.038268723     0.000000000  0.000000000  0.142857143

  Length of vectors
     0.035746202  0.034188034  0.038268723

  Shift w.r.t. Gamma in fractional coordinates (k-lattice)
     0.000000000  0.000000000  0.000000000

 
 Subroutine IBZKPT returns following result:
 ===========================================
 
 Found     53 irreducible k-points:
 
 Following reciprocal coordinates:
            Coordinates               Weight
  0.000000  0.000000  0.000000      1.000000
  0.333333  0.000000  0.000000      2.000000
  0.000000  0.200000  0.000000      2.000000
  0.333333  0.200000  0.000000      2.000000
 -0.333333  0.200000  0.000000      2.000000
  0.000000  0.400000  0.000000      2.000000
  0.333333  0.400000  0.000000      2.000000
 -0.333333  0.400000  0.000000      2.000000
  0.000000  0.000000  0.142857      2.000000
  0.333333  0.000000  0.142857      2.000000
 -0.333333  0.000000  0.142857      2.000000
  0.000000  0.200000  0.142857      2.000000
  0.000000 -0.200000  0.142857      2.000000
  0.333333  0.200000  0.142857      2.000000
 -0.333333 -0.200000  0.142857      2.000000
 -0.333333  0.200000 -0.142857      2.000000
  0.333333 -0.200000 -0.142857      2.000000
  0.000000  0.400000  0.142857      2.000000
  0.000000 -0.400000  0.142857      2.000000
  0.333333  0.400000  0.142857      2.000000
 -0.333333 -0.400000  0.142857      2.000000
 -0.333333  0.400000 -0.142857      2.000000
  0.333333 -0.400000 -0.142857      2.000000
  0.000000  0.000000  0.285714      2.000000
  0.333333  0.000000  0.285714      2.000000
 -0.333333  0.000000  0.285714      2.000000
  0.000000  0.200000  0.285714      2.000000
  0.000000 -0.200000  0.285714      2.000000
  0.333333  0.200000  0.285714      2.000000
 -0.333333 -0.200000  0.285714      2.000000
 -0.333333  0.200000 -0.285714      2.000000
  0.333333 -0.200000 -0.285714      2.000000
  0.000000  0.400000  0.285714      2.000000
  0.000000 -0.400000  0.285714      2.000000
  0.333333  0.400000  0.285714      2.000000
 -0.333333 -0.400000  0.285714      2.000000
 -0.333333  0.400000 -0.285714      2.000000
  0.333333 -0.400000 -0.285714      2.000000
  0.000000  0.000000  0.428571      2.000000
  0.333333  0.000000  0.428571      2.000000
 -0.333333  0.000000  0.428571      2.000000
  0.000000  0.200000  0.428571      2.000000
  0.000000 -0.200000  0.428571      2.000000
  0.333333  0.200000  0.428571      2.000000
 -0.333333 -0.200000  0.428571      2.000000
 -0.333333  0.200000 -0.428571      2.000000
  0.333333 -0.200000 -0.428571      2.000000
  0.000000  0.400000  0.428571      2.000000
  0.000000 -0.400000  0.428571      2.000000
  0.333333  0.400000  0.428571      2.000000
 -0.333333 -0.400000  0.428571      2.000000
 -0.333333  0.400000 -0.428571      2.000000
  0.333333 -0.400000 -0.428571      2.000000
 
 Following cartesian coordinates:
            Coordinates               Weight
  0.000000  0.000000  0.000000      1.000000
  0.035746  0.000000  0.000000      2.000000
  0.000000  0.034188  0.000000      2.000000
  0.035746  0.034188  0.000000      2.000000
 -0.035746  0.034188  0.000000      2.000000
  0.000000  0.068376  0.000000      2.000000
  0.035746  0.068376  0.000000      2.000000
 -0.035746  0.068376  0.000000      2.000000
  0.000000  0.000000  0.038269      2.000000
  0.035746  0.000000  0.038269      2.000000
 -0.035746  0.000000  0.038269      2.000000
  0.000000  0.034188  0.038269      2.000000
  0.000000 -0.034188  0.038269      2.000000
  0.035746  0.034188  0.038269      2.000000
 -0.035746 -0.034188  0.038269      2.000000
 -0.035746  0.034188 -0.038269      2.000000
  0.035746 -0.034188 -0.038269      2.000000
  0.000000  0.068376  0.038269      2.000000
  0.000000 -0.068376  0.038269      2.000000
  0.035746  0.068376  0.038269      2.000000
 -0.035746 -0.068376  0.038269      2.000000
 -0.035746  0.068376 -0.038269      2.000000
  0.035746 -0.068376 -0.038269      2.000000
  0.000000  0.000000  0.076537      2.000000
  0.035746  0.000000  0.076537      2.000000
 -0.035746  0.000000  0.076537      2.000000
  0.000000  0.034188  0.076537      2.000000
  0.000000 -0.034188  0.076537      2.000000
  0.035746  0.034188  0.076537      2.000000
 -0.035746 -0.034188  0.076537      2.000000
 -0.035746  0.034188 -0.076537      2.000000
  0.035746 -0.034188 -0.076537      2.000000
  0.000000  0.068376  0.076537      2.000000
  0.000000 -0.068376  0.076537      2.000000
  0.035746  0.068376  0.076537      2.000000
 -0.035746 -0.068376  0.076537      2.000000
 -0.035746  0.068376 -0.076537      2.000000
  0.035746 -0.068376 -0.076537      2.000000
  0.000000  0.000000  0.114806      2.000000
  0.035746  0.000000  0.114806      2.000000
 -0.035746  0.000000  0.114806      2.000000
  0.000000  0.034188  0.114806      2.000000
  0.000000 -0.034188  0.114806      2.000000
  0.035746  0.034188  0.114806      2.000000
 -0.035746 -0.034188  0.114806      2.000000
 -0.035746  0.034188 -0.114806      2.000000
  0.035746 -0.034188 -0.114806      2.000000
  0.000000  0.068376  0.114806      2.000000
  0.000000 -0.068376  0.114806      2.000000
  0.035746  0.068376  0.114806      2.000000
 -0.035746 -0.068376  0.114806      2.000000
 -0.035746  0.068376 -0.114806      2.000000
  0.035746 -0.068376 -0.114806      2.000000
 


--------------------------------------------------------------------------------------------------------




 Dimension of arrays:
   k-points           NKPTS =     53   k-points in BZ     NKDIM =     53   number of bands    NBANDS=     44
   number of dos      NEDOS =    301   number of ions     NIONS =     20
   non local maximal  LDIM  =      4   non local SUM 2l+1 LMDIM =      8
   total plane-waves  NPLWV = 230400
   max r-space proj   IRMAX =      1   max aug-charges    IRDMAX=   8234
   dimension x,y,z NGX =    96 NGY =   60 NGZ =   40
   dimension x,y,z NGXF=   192 NGYF=  120 NGZF=   80
   support grid    NGXF=   192 NGYF=  120 NGZF=   80
   ions per type =               4   8   8
   NGX,Y,Z   is equivalent  to a cutoff of  17.11, 17.05, 17.81 a.u.
   NGXF,Y,Z  is equivalent  to a cutoff of  34.23, 34.10, 35.63 a.u.

 SYSTEM =  unknown system                          
 POSCAR =   N  C  H                                

 Startparameter for this run:
   NWRITE =      2    write-flag & timer
   PREC   = accura    normal or accurate (medium, high low for compatibility)
   ISTART =      0    job   : 0-new  1-cont  2-samecut
   ICHARG =      2    charge: 1-file 2-atom 10-const
   ISPIN  =      1    spin polarized calculation?
   LNONCOLLINEAR =      F non collinear calculations
   LSORBIT =      F    spin-orbit coupling
   INIWAV =      1    electr: 0-lowe 1-rand  2-diag
   LASPH  =      T    aspherical Exc in radial PAW
 Electronic Relaxation 1
   ENCUT  = 1000.0 eV  73.50 Ry    8.57 a.u.  24.04 15.08  9.63*2*pi/ulx,y,z
   ENINI  = 1000.0     initial cutoff
   ENAUG  = 1000.0 eV  augmentation charge cutoff
   NELM   =     60;   NELMIN=  2; NELMDL= -5     # of ELM steps 
   EDIFF  = 0.1E-06   stopping-criterion for ELM
   LREAL  =      F    real-space projection
   NLSPLINE    = F    spline interpolate recip. space projectors
   LCOMPAT=      F    compatible to vasp.4.4
   GGA_COMPAT  = T    GGA compatible to vasp.4.4-vasp.4.6
   LMAXPAW     = -100 max onsite density
   LMAXMIX     =    2 max onsite mixed and CHGCAR
   VOSKOWN=      0    Vosko Wilk Nusair interpolation
   ROPT   =    0.00000   0.00000   0.00000
 Ionic relaxation
   EDIFFG = 0.1E-05   stopping-criterion for IOM
   NSW    =      0    number of steps for IOM
   NBLOCK =      1;   KBLOCK =      1    inner block; outer block 
   IBRION =     -1    ionic relax: 0-MD 1-quasi-New 2-CG
   NFREE  =      0    steps in history (QN), initial steepest desc. (CG)
   ISIF   =      0    stress and relaxation
   IWAVPR =     10    prediction:  0-non 1-charg 2-wave 3-comb
   ISYM   =      2    0-nonsym 1-usesym 2-fastsym
   LCORR  =      T    Harris-Foulkes like correction to forces

   POTIM  = 0.5000    time-step for ionic-motion
   TEIN   =    0.0    initial temperature
   TEBEG  =    0.0;   TEEND  =   0.0 temperature during run
   SMASS  =  -3.00    Nose mass-parameter (am)
   estimated Nose-frequenzy (Omega)   =  0.10E-29 period in steps = 0.13E+47 mass=  -0.199E-26a.u.
   SCALEE = 1.0000    scale energy and forces
   NPACO  =    256;   APACO  = 10.0  distance and # of slots for P.C.
   PSTRESS=    0.0 pullay stress

  Mass of Ions in am
   POMASS =  14.00 12.01  1.00
  Ionic Valenz
   ZVAL   =   5.00  4.00  1.00
  Atomic Wigner-Seitz radii
   RWIGS  =  -1.00 -1.00 -1.00
  virtual crystal weights 
   VCA    =   1.00  1.00  1.00
   NELECT =      60.0000    total number of electrons
   NUPDOWN=      -1.0000    fix difference up-down

 DOS related values:
   EMIN   =  10.00;   EMAX   =-10.00  energy-range for DOS
   EFERMI =   0.00;   METHOD = LEGACY      
   ISMEAR =     0;   SIGMA  =   0.01  broadening in eV -4-tet -1-fermi 0-gaus

 Electronic relaxation 2 (details)
   IALGO  =     58    algorithm
   LDIAG  =      T    sub-space diagonalisation (order eigenvalues)
   LSUBROT=      F    optimize rotation matrix (better conditioning)
   TURBO    =      0    0=normal 1=particle mesh
   IRESTART =      0    0=no restart 2=restart with 2 vectors
   NREBOOT  =      0    no. of reboots
   NMIN     =      0    reboot dimension
   EREF     =   0.00    reference energy to select bands
   IMIX   =      4    mixing-type and parameters
     AMIX     =   0.40;   BMIX     =  1.00
     AMIX_MAG =   1.60;   BMIX_MAG =  1.00
     AMIN     =   0.10
     WC   =   100.;   INIMIX=   1;  MIXPRE=   1;  MAXMIX= -45

 Intra band minimization:
   WEIMIN = 0.0000     energy-eigenvalue tresh-hold
   EBREAK =  0.57E-09  absolut break condition
   DEPER  =   0.30     relativ break condition  

   TIME   =   0.40     timestep for ELM

  volume/ion in A,a.u.               =      10.18        68.71
  Fermi-wavevector in a.u.,A,eV,Ry     =   1.089359  2.058590 16.146074  1.186703
  Thomas-Fermi vector in A             =   2.225560

 Write flags
   LWAVE        =      F    write WAVECAR
   LDOWNSAMPLE  =      F    k-point downsampling of WAVECAR
   LCHARG       =      T    write CHGCAR
   LVTOT        =      F    write LOCPOT, total local potential
   LVHAR        =      F    write LOCPOT, Hartree potential only
   LELF         =      F    write electronic localiz. function (ELF)
   LORBIT       =      0    0 simple, 1 ext, 2 COOP (PROOUT), +10 PAW based schemes


 Dipole corrections
   LMONO  =      F    monopole corrections only (constant potential shift)
   LDIPOL =      F    correct potential (dipole corrections)
   IDIPOL =      0    1-x, 2-y, 3-z, 4-all directions 
   EPSILON=  1.0000000 bulk dielectric constant

 Exchange correlation treatment:
   GGA     =    OR    GGA type
   LEXCH   =    41    internal setting for exchange type
   LIBXC   =     F    Libxc                    
   VOSKOWN =     0    Vosko Wilk Nusair interpolation
   LHFCALC =     F    Hartree Fock is set to
   LHFONE  =     F    Hartree Fock one center treatment
   AEXX    =    0.0000 exact exchange contribution

 vdW DFT:
   LUSE_VDW   =     T    switch on vdW DFT
   IVDW_NL    =     1    kernel type
   LSPIN_VDW  =     F    use spin-polarized vdW DFT
   Zab_VDW    =-.8491    correlation parameter
   PARAM1     =0.1234
   PARAM2     =1.0000
   PARAM3     =0.0000
   -- rVV10 --
   BPARAM     = 6.3000
   CPARAM     = 0.0093

 Linear response parameters
   LEPSILON=     F    determine dielectric tensor
   LRPA    =     F    only Hartree local field effects (RPA)
   LNABLA  =     F    use nabla operator in PAW spheres
   LVEL    =     F    velocity operator in full k-point grid
   CSHIFT  =0.1000    complex shift for real part using Kramers Kronig
   OMEGAMAX=  -1.0    maximum frequency
   DEG_THRESHOLD= 0.2000000E-02 threshold for treating states as degnerate
   RTIME   =   -0.100 relaxation time in fs
  (WPLASMAI=    0.000 imaginary part of plasma frequency in eV, 0.658/RTIME)
   DFIELD  = 0.0000000 0.0000000 0.0000000 field for delta impulse in time

  Optional k-point grid parameters
   LKPOINTS_OPT  =     F    use optional k-point grid
   KPOINTS_OPT_MODE=     1    mode for optional k-point grid

 Orbital magnetization related:
   ORBITALMAG=     F  switch on orbital magnetization
   LCHIMAG   =     F  perturbation theory with respect to B field
   DQ        =  0.001000  dq finite difference perturbation B field
   LLRAUG    =     F  two centre corrections for induced B field
   LBONE     =     F  B-component reconstruction in AE one-centre
   LVGVCALC  =     T  calculate vGv susceptibility
   LVGVAPPL  =     F  apply vGv susceptibility instead of pGv for G=0

 Random number generation:
   RANDOM_GENERATOR = DEFAULT
   PCG_SEED         = not used


--------------------------------------------------------------------------------------------------------


 Static calculation
 charge density and potential will be updated during run
 non-spin polarized calculation
 Conjugate gradient for all bands (Freysoldt, et al. PRB 79, 241103 (2009))
 preconditioned conjugated gradient                                        
 perform sub-space diagonalisation
    before iterative eigenvector-optimisation
 modified Broyden-mixing scheme, WC =      100.0
 initial mixing is a Kerker type mixing with AMIX =  0.4000 and BMIX =      1.0000
 Hartree-type preconditioning will be used
 using additional bands           14
 reciprocal scheme for non local part
 use partial core corrections
 no Harris-corrections to forces 
 use gradient corrections 
 use of overlap-Matrix (Vanderbilt PP)
 Gauss-broadening in eV      SIGMA  =   0.01


--------------------------------------------------------------------------------------------------------


  energy-cutoff  :     1000.00
  volume of cell :      203.64
      direct lattice vectors                 reciprocal lattice vectors
     9.325000000  0.000000000  0.000000000     0.107238606  0.000000000  0.000000000
     0.000000000  5.850000000  0.000000000     0.000000000  0.170940171  0.000000000
     0.000000000  0.000000000  3.733000000     0.000000000  0.000000000  0.267881061

  length of vectors
     9.325000000  5.850000000  3.733000000     0.107238606  0.170940171  0.267881061



 k-points in units of 2pi/SCALE and weight: auto                                    
   0.00000000  0.00000000  0.00000000       0.010
   0.03574620  0.00000000  0.00000000       0.019
   0.00000000  0.03418803  0.00000000       0.019
   0.03574620  0.03418803  0.00000000       0.019
  -0.03574620  0.03418803  0.00000000       0.019
   0.00000000  0.06837607  0.00000000       0.019
   0.03574620  0.06837607  0.00000000       0.019
  -0.03574620  0.06837607  0.00000000       0.019
   0.00000000  0.00000000  0.03826872       0.019
   0.03574620  0.00000000  0.03826872       0.019
  -0.03574620  0.00000000  0.03826872       0.019
   0.00000000  0.03418803  0.03826872       0.019
   0.00000000 -0.03418803  0.03826872       0.019
   0.03574620  0.03418803  0.03826872       0.019
  -0.03574620 -0.03418803  0.03826872       0.019
  -0.03574620  0.03418803 -0.03826872       0.019
   0.03574620 -0.03418803 -0.03826872       0.019
   0.00000000  0.06837607  0.03826872       0.019
   0.00000000 -0.06837607  0.03826872       0.019
   0.03574620  0.06837607  0.03826872       0.019
  -0.03574620 -0.06837607  0.03826872       0.019
  -0.03574620  0.06837607 -0.03826872       0.019
   0.03574620 -0.06837607 -0.03826872       0.019
   0.00000000  0.00000000  0.07653745       0.019
   0.03574620  0.00000000  0.07653745       0.019
  -0.03574620  0.00000000  0.07653745       0.019
   0.00000000  0.03418803  0.07653745       0.019
   0.00000000 -0.03418803  0.07653745       0.019
   0.03574620  0.03418803  0.07653745       0.019
  -0.03574620 -0.03418803  0.07653745       0.019
  -0.03574620  0.03418803 -0.07653745       0.019
   0.03574620 -0.03418803 -0.07653745       0.019
   0.00000000  0.06837607  0.07653745       0.019
   0.00000000 -0.06837607  0.07653745       0.019
   0.03574620  0.06837607  0.07653745       0.019
  -0.03574620 -0.06837607  0.07653745       0.019
  -0.03574620  0.06837607 -0.07653745       0.019
   0.03574620 -0.06837607 -0.07653745       0.019
   0.00000000  0.00000000  0.11480617       0.019
   0.03574620  0.00000000  0.11480617       0.019
  -0.03574620  0.00000000  0.11480617       0.019
   0.00000000  0.03418803  0.11480617       0.019
   0.00000000 -0.03418803  0.11480617       0.019
   0.03574620  0.03418803  0.11480617       0.019
  -0.03574620 -0.03418803  0.11480617       0.019
  -0.03574620  0.03418803 -0.11480617       0.019
   0.03574620 -0.03418803 -0.11480617       0.019
   0.00000000  0.06837607  0.11480617       0.019
   0.00000000 -0.06837607  0.11480617       0.019
   0.03574620  0.06837607  0.11480617       0.019
  -0.03574620 -0.06837607  0.11480617       0.019
  -0.03574620  0.06837607 -0.11480617       0.019
   0.03574620 -0.06837607 -0.11480617       0.019

 k-points in reciprocal lattice and weights: auto                                    
   0.00000000  0.00000000  0.00000000       0.010
   0.33333333  0.00000000  0.00000000       0.019
   0.00000000  0.20000000  0.00000000       0.019
   0.33333333  0.20000000  0.00000000       0.019
  -0.33333333  0.20000000  0.00000000       0.019
   0.00000000  0.40000000  0.00000000       0.019
   0.33333333  0.40000000  0.00000000       0.019
  -0.33333333  0.40000000  0.00000000       0.019
   0.00000000  0.00000000  0.14285714       0.019
   0.33333333  0.00000000  0.14285714       0.019
  -0.33333333  0.00000000  0.14285714       0.019
   0.00000000  0.20000000  0.14285714       0.019
   0.00000000 -0.20000000  0.14285714       0.019
   0.33333333  0.20000000  0.14285714       0.019
  -0.33333333 -0.20000000  0.14285714       0.019
  -0.33333333  0.20000000 -0.14285714       0.019
   0.33333333 -0.20000000 -0.14285714       0.019
   0.00000000  0.40000000  0.14285714       0.019
   0.00000000 -0.40000000  0.14285714       0.019
   0.33333333  0.40000000  0.14285714       0.019
  -0.33333333 -0.40000000  0.14285714       0.019
  -0.33333333  0.40000000 -0.14285714       0.019
   0.33333333 -0.40000000 -0.14285714       0.019
   0.00000000  0.00000000  0.28571429       0.019
   0.33333333  0.00000000  0.28571429       0.019
  -0.33333333  0.00000000  0.28571429       0.019
   0.00000000  0.20000000  0.28571429       0.019
   0.00000000 -0.20000000  0.28571429       0.019
   0.33333333  0.20000000  0.28571429       0.019
  -0.33333333 -0.20000000  0.28571429       0.019
  -0.33333333  0.20000000 -0.28571429       0.019
   0.33333333 -0.20000000 -0.28571429       0.019
   0.00000000  0.40000000  0.28571429       0.019
   0.00000000 -0.40000000  0.28571429       0.019
   0.33333333  0.40000000  0.28571429       0.019
  -0.33333333 -0.40000000  0.28571429       0.019
  -0.33333333  0.40000000 -0.28571429       0.019
   0.33333333 -0.40000000 -0.28571429       0.019
   0.00000000  0.00000000  0.42857143       0.019
   0.33333333  0.00000000  0.42857143       0.019
  -0.33333333  0.00000000  0.42857143       0.019
   0.00000000  0.20000000  0.42857143       0.019
   0.00000000 -0.20000000  0.42857143       0.019
   0.33333333  0.20000000  0.42857143       0.019
  -0.33333333 -0.20000000  0.42857143       0.019
  -0.33333333  0.20000000 -0.42857143       0.019
   0.33333333 -0.20000000 -0.42857143       0.019
   0.00000000  0.40000000  0.42857143       0.019
   0.00000000 -0.40000000  0.42857143       0.019
   0.33333333  0.40000000  0.42857143       0.019
  -0.33333333 -0.40000000  0.42857143       0.019
  -0.33333333  0.40000000 -0.42857143       0.019
   0.33333333 -0.40000000 -0.42857143       0.019

 position of ions in fractional coordinates (direct lattice) 
   0.15066924  0.99999665  0.99999403
   0.84933129  0.00000335  0.00000597
   0.65067374  0.50001539  0.49998477
   0.34933136  0.49998706  0.50001418
   0.07489173  0.17835526  0.12390804
   0.07488765  0.82164281  0.87608325
   0.92511235  0.17835176  0.12391606
   0.92510850  0.82164948  0.87609778
   0.57489223  0.32165021  0.62390448
   0.42511870  0.32164538  0.62392091
   0.42511198  0.67835156  0.37609454
   0.57488667  0.67835784  0.37607783
   0.13582056  0.32360254  0.22792836
   0.13581332  0.67639533  0.77205395
   0.86418540  0.32360521  0.22795267
   0.86417747  0.67639417  0.77207629
   0.63583640  0.17640356  0.72792388
   0.36419975  0.17639518  0.72796318
   0.36416820  0.82359960  0.27207731
   0.63580565  0.82360661  0.27203872

 position of ions in cartesian coordinates  (Angst):
   1.40499064  5.84998041  3.73297772
   7.92001424  0.00001959  0.00002228
   6.06753258  2.92509006  1.86644313
   3.25751491  2.92492431  1.86655294
   0.69836538  1.04337826  0.46254872
   0.69832735  4.80661044  3.27041876
   8.62667265  1.04335779  0.46257865
   8.62663679  4.80664948  3.27047302
   5.36087000  1.88165371  2.32903541
   3.96423188  1.88162545  2.32909675
   3.96416917  3.96835664  1.40396090
   5.36081816  3.96839334  1.40389856
   1.26652668  1.89307486  0.85085658
   1.26645924  3.95691268  2.88207739
   8.05852889  1.89309050  0.85094731
   8.05845493  3.95690589  2.88216080
   5.92917440  1.03196080  2.71733985
   3.39616265  1.03191180  2.71748655
   3.39586849  4.81805766  1.01566459
   5.92888770  4.81809866  1.01552052



--------------------------------------------------------------------------------------------------------


 k-point   1 :   0.0000 0.0000 0.0000  plane waves:   14609
 k-point   2 :   0.3333 0.0000 0.0000  plane waves:   14648
 k-point   3 :   0.0000 0.2000 0.0000  plane waves:   14622
 k-point   4 :   0.3333 0.2000 0.0000  plane waves:   14644
 k-point   5 :  -0.3333 0.2000 0.0000  plane waves:   14644
 k-point   6 :   0.0000 0.4000 0.0000  plane waves:   14630
 k-point   7 :   0.3333 0.4000 0.0000  plane waves:   14646
 k-point   8 :  -0.3333 0.4000 0.0000  plane waves:   14646
 k-point   9 :   0.0000 0.0000 0.1429  plane waves:   14601
 k-point  10 :   0.3333 0.0000 0.1429  plane waves:   14623
 k-point  11 :  -0.3333 0.0000 0.1429  plane waves:   14623
 k-point  12 :   0.0000 0.2000 0.1429  plane waves:   14609
 k-point  13 :   0.0000-0.2000 0.1429  plane waves:   14609
 k-point  14 :   0.3333 0.2000 0.1429  plane waves:   14634
 k-point  15 :  -0.3333-0.2000 0.1429  plane waves:   14634
 k-point  16 :  -0.3333 0.2000-0.1429  plane waves:   14634
 k-point  17 :   0.3333-0.2000-0.1429  plane waves:   14634
 k-point  18 :   0.0000 0.4000 0.1429  plane waves:   14642
 k-point  19 :   0.0000-0.4000 0.1429  plane waves:   14642
 k-point  20 :   0.3333 0.4000 0.1429  plane waves:   14656
 k-point  21 :  -0.3333-0.4000 0.1429  plane waves:   14656
 k-point  22 :  -0.3333 0.4000-0.1429  plane waves:   14656
 k-point  23 :   0.3333-0.4000-0.1429  plane waves:   14656
 k-point  24 :   0.0000 0.0000 0.2857  plane waves:   14613
 k-point  25 :   0.3333 0.0000 0.2857  plane waves:   14598
 k-point  26 :  -0.3333 0.0000 0.2857  plane waves:   14598
 k-point  27 :   0.0000 0.2000 0.2857  plane waves:   14619
 k-point  28 :   0.0000-0.2000 0.2857  plane waves:   14619
 k-point  29 :   0.3333 0.2000 0.2857  plane waves:   14620
 k-point  30 :  -0.3333-0.2000 0.2857  plane waves:   14620
 k-point  31 :  -0.3333 0.2000-0.2857  plane waves:   14620
 k-point  32 :   0.3333-0.2000-0.2857  plane waves:   14620
 k-point  33 :   0.0000 0.4000 0.2857  plane waves:   14620
 k-point  34 :   0.0000-0.4000 0.2857  plane waves:   14620
 k-point  35 :   0.3333 0.4000 0.2857  plane waves:   14645
 k-point  36 :  -0.3333-0.4000 0.2857  plane waves:   14645
 k-point  37 :  -0.3333 0.4000-0.2857  plane waves:   14645
 k-point  38 :   0.3333-0.4000-0.2857  plane waves:   14645
 k-point  39 :   0.0000 0.0000 0.4286  plane waves:   14626
 k-point  40 :   0.3333 0.0000 0.4286  plane waves:   14598
 k-point  41 :  -0.3333 0.0000 0.4286  plane waves:   14598
 k-point  42 :   0.0000 0.2000 0.4286  plane waves:   14621
 k-point  43 :   0.0000-0.2000 0.4286  plane waves:   14621
 k-point  44 :   0.3333 0.2000 0.4286  plane waves:   14608
 k-point  45 :  -0.3333-0.2000 0.4286  plane waves:   14608
 k-point  46 :  -0.3333 0.2000-0.4286  plane waves:   14608
 k-point  47 :   0.3333-0.2000-0.4286  plane waves:   14608
 k-point  48 :   0.0000 0.4000 0.4286  plane waves:   14589
 k-point  49 :   0.0000-0.4000 0.4286  plane waves:   14589
 k-point  50 :   0.3333 0.4000 0.4286  plane waves:   14606
 k-point  51 :  -0.3333-0.4000 0.4286  plane waves:   14606
 k-point  52 :  -0.3333 0.4000-0.4286  plane waves:   14606
 k-point  53 :   0.3333-0.4000-0.4286  plane waves:   14606

 maximum and minimum number of plane-waves per node :       267      191

 maximum number of plane-waves:     14656
 maximum index in each direction: 
   IXMAX=   24   IYMAX=   15   IZMAX=   10
   IXMIN=  -24   IYMIN=  -15   IZMIN=  -10


 parallel 3D FFT for wavefunctions:
    minimum data exchange during FFTs selected (reduces bandwidth)
 parallel 3D FFT for charge:
    minimum data exchange during FFTs selected (reduces bandwidth)


 total amount of memory used by VASP MPI-rank0    41580. kBytes
=======================================================================

   base      :      30000. kBytes
   nonl-proj :       2728. kBytes
   fftplans  :        533. kBytes
   grid      :        819. kBytes
   one-center:          3. kBytes
   wavefun   :       7497. kBytes

     INWAV:  cpu time      0.0001: real time      0.0002
 Broyden mixing: mesh for mixing (old mesh)
   NGX = 49   NGY = 31   NGZ = 19
  (NGX  =192   NGY  =120   NGZ  = 80)
  gives a total of  28861 points

 initial charge density was supplied:
 charge density of overlapping atoms calculated
 number of electron      60.0000000 magnetization 
 keeping initial charge density in first step


--------------------------------------------------------------------------------------------------------


 Maximum index for augmentation-charges            0 (set IRDMAX)


--------------------------------------------------------------------------------------------------------


 First call to EWALD:  gamma=   0.301
 Maximum number of real-space cells 2x 3x 4
 Maximum number of reciprocal cells 4x 3x 2

    FEWALD:  cpu time      0.0016: real time      0.0016


--------------------------------------- Ionic step        1  -------------------------------------------




--------------------------------------- Iteration      1(   1)  ---------------------------------------


vdW kernel read from vdw_kernel.bindat
  0.0000  0.2424  0.5071  0.7962  1.1119  1.4567  1.8333  2.2446  2.6937  3.1842
  3.7199  4.3049  4.9438  5.6415  6.4036  7.2358  8.1446  9.1372 10.2212 11.4050
 12.6979 14.1099 15.6519 17.3360 19.1751 21.1837 23.3773 25.7729 28.3892 31.2465
 34.3669 37.7748 41.4965 45.5611 50.0000

    POTLOK:  cpu time      1.0162: real time      1.0177
    SETDIJ:  cpu time      0.0713: real time      0.0714
    TRIAL :  cpu time      2.0690: real time      2.0716
    CORREC:  cpu time      0.0035: real time      0.0035
    --------------------------------------------
      LOOP:  cpu time      3.1618: real time      3.1660

 eigenvalue-minimisations  :  4664
 total energy-change (2. order) : 0.4681367E+03  (-0.4414374E+04)
 number of electron      60.0000000 magnetization 
 augmentation part       60.0000000 magnetization 

 Free energy of the ion-electron system (eV)
  ---------------------------------------------------
  alpha Z        PSCENC =        55.52509218
  Ewald energy   TEWEN  =     -1086.26724324
  -Hartree energ DENC   =     -1024.31100298
  -exchange      EXHF   =         0.00000000
  -V(xc)+E(xc)   XCENC  =       136.43028911
  PAW double counting   =      1758.59120389    -1706.50902373
  entropy T*S    EENTRO =        -0.00016766
  eigenvalues    EBANDS =       -25.63137686
  atomic energy  EATOM  =      2360.30888434
  ---------------------------------------------------
  free energy    TOTEN  =       468.13665505 eV

  energy without entropy =      468.13682271  energy(sigma->0) =      468.13673888


--------------------------------------------------------------------------------------------------------




--------------------------------------- Iteration      1(   2)  ---------------------------------------


    TRIAL :  cpu time      2.4619: real time      2.4631
    CORREC:  cpu time      0.0005: real time      0.0005
    --------------------------------------------
      LOOP:  cpu time      2.4780: real time      2.4946

 eigenvalue-minimisations  :  6248
 total energy-change (2. order) :-0.5213563E+03  (-0.4981735E+03)
 number of electron      60.0000000 magnetization 
 augmentation part       60.0000000 magnetization 

 Free energy of the ion-electron system (eV)
  ---------------------------------------------------
  alpha Z        PSCENC =        55.52509218
  Ewald energy   TEWEN  =     -1086.26724324
  -Hartree energ DENC   =     -1024.31100298
  -exchange      EXHF   =         0.00000000
  -V(xc)+E(xc)   XCENC  =       136.43028911
  PAW double counting   =      1758.59120389    -1706.50902373
  entropy T*S    EENTRO =        -0.00000000
  eigenvalues    EBANDS =      -546.98785719
  atomic energy  EATOM  =      2360.30888434
  ---------------------------------------------------
  free energy    TOTEN  =       -53.21965761 eV

  energy without entropy =      -53.21965761  energy(sigma->0) =      -53.21965761


--------------------------------------------------------------------------------------------------------




--------------------------------------- Iteration      1(   3)  ---------------------------------------


    TRIAL :  cpu time      2.2842: real time      2.2851
    CORREC:  cpu time      0.0004: real time      0.0004
    --------------------------------------------
      LOOP:  cpu time      2.2987: real time      2.3150

 eigenvalue-minimisations  :  5568
 total energy-change (2. order) :-0.7038531E+02  (-0.6953530E+02)
 number of electron      60.0000000 magnetization 
 augmentation part       60.0000000 magnetization 

 Free energy of the ion-electron system (eV)
  ---------------------------------------------------
  alpha Z        PSCENC =        55.52509218
  Ewald energy   TEWEN  =     -1086.26724324
  -Hartree energ DENC   =     -1024.31100298
  -exchange      EXHF   =         0.00000000
  -V(xc)+E(xc)   XCENC  =       136.43028911
  PAW double counting   =      1758.59120389    -1706.50902373
  entropy T*S    EENTRO =        -0.00000000
  eigenvalues    EBANDS =      -617.37316508
  atomic energy  EATOM  =      2360.30888434
  ---------------------------------------------------
  free energy    TOTEN  =      -123.60496551 eV

  energy without entropy =     -123.60496551  energy(sigma->0) =     -123.60496551


--------------------------------------------------------------------------------------------------------




--------------------------------------- Iteration      1(   4)  ---------------------------------------


    TRIAL :  cpu time      2.5205: real time      2.5215
    CORREC:  cpu time      0.0004: real time      0.0004
    --------------------------------------------
      LOOP:  cpu time      2.5486: real time      2.5497

 eigenvalue-minimisations  :  6504
 total energy-change (2. order) :-0.2490757E+01  (-0.2480615E+01)
 number of electron      60.0000000 magnetization 
 augmentation part       60.0000000 magnetization 

 Free energy of the ion-electron system (eV)
  ---------------------------------------------------
  alpha Z        PSCENC =        55.52509218
  Ewald energy   TEWEN  =     -1086.26724324
  -Hartree energ DENC   =     -1024.31100298
  -exchange      EXHF   =         0.00000000
  -V(xc)+E(xc)   XCENC  =       136.43028911
  PAW double counting   =      1758.59120389    -1706.50902373
  entropy T*S    EENTRO =        -0.00000000
  eigenvalues    EBANDS =      -619.86392209
  atomic energy  EATOM  =      2360.30888434
  ---------------------------------------------------
  free energy    TOTEN  =      -126.09572251 eV

  energy without entropy =     -126.09572251  energy(sigma->0) =     -126.09572251


--------------------------------------------------------------------------------------------------------




--------------------------------------- Iteration      1(   5)  ---------------------------------------


    TRIAL :  cpu time      2.3718: real time      2.3734
    CORREC:  cpu time      0.0005: real time      0.0005
    CHARGE:  cpu time      0.1125: real time      0.1132
    --------------------------------------------
      LOOP:  cpu time      2.4994: real time      2.5164

 eigenvalue-minimisations  :  6052
 total energy-change (2. order) :-0.6642913E-01  (-0.6639757E-01)
 number of electron      59.9999999 magnetization 
 augmentation part       -0.1367542 magnetization 

 Free energy of the ion-electron system (eV)
  ---------------------------------------------------
  alpha Z        PSCENC =        55.52509218
  Ewald energy   TEWEN  =     -1086.26724324
  -Hartree energ DENC   =     -1024.31100298
  -exchange      EXHF   =         0.00000000
  -V(xc)+E(xc)   XCENC  =       136.43028911
  PAW double counting   =      1758.59120389    -1706.50902373
  entropy T*S    EENTRO =        -0.00000000
  eigenvalues    EBANDS =      -619.93035122
  atomic energy  EATOM  =      2360.30888434
  ---------------------------------------------------
  free energy    TOTEN  =      -126.16215165 eV

  energy without entropy =     -126.16215165  energy(sigma->0) =     -126.16215165


--------------------------------------------------------------------------------------------------------




--------------------------------------- Iteration      1(   6)  ---------------------------------------


    POTLOK:  cpu time      0.3789: real time      0.3789
    SETDIJ:  cpu time      0.0663: real time      0.0663
    TRIAL :  cpu time      1.2833: real time      1.2849
    CORREC:  cpu time      1.2993: real time      1.2998
    CHARGE:  cpu time      0.1023: real time      0.1023
    --------------------------------------------
      LOOP:  cpu time      3.1435: real time      3.1600

 eigenvalue-minimisations  :     0
 total energy-change (2. order) : 0.1706072E+02  (-0.6207866E+01)
 number of electron      59.9999999 magnetization 
 augmentation part       -0.1602164 magnetization 

 Free energy of the ion-electron system (eV)
  ---------------------------------------------------
  alpha Z        PSCENC =        55.52509218
  Ewald energy   TEWEN  =     -1086.26724324
  -Hartree energ DENC   =     -1315.42953460
  -exchange      EXHF   =         0.00000000
  -V(xc)+E(xc)   XCENC  =       154.32507535
  PAW double counting   =     17353.41813586   -17303.62733693
  entropy T*S    EENTRO =        -0.00000000
  eigenvalues    EBANDS =      -327.35450854
  atomic energy  EATOM  =      2360.30888434
  ---------------------------------------------------
  free energy    TOTEN  =      -109.10143558 eV

  energy without entropy =     -109.10143558  energy(sigma->0) =     -109.10143558


--------------------------------------------------------------------------------------------------------




--------------------------------------- Iteration      1(   7)  ---------------------------------------


    POTLOK:  cpu time      0.3790: real time      0.3793
    SETDIJ:  cpu time      0.0664: real time      0.0664
    TRIAL :  cpu time      1.2944: real time      1.2947
    CORREC:  cpu time      1.3159: real time      1.3163
    CHARGE:  cpu time      0.0999: real time      0.0999
    --------------------------------------------
      LOOP:  cpu time      3.1680: real time      3.1844

 eigenvalue-minimisations  :     0
 total energy-change (2. order) :-0.6211961E+01  (-0.6921422E+00)
 number of electron      59.9999999 magnetization 
 augmentation part       -0.1789899 magnetization 

 Free energy of the ion-electron system (eV)
  ---------------------------------------------------
  alpha Z        PSCENC =        55.52509218
  Ewald energy   TEWEN  =     -1086.26724324
  -Hartree energ DENC   =     -1193.79907398
  -exchange      EXHF   =         0.00000000
  -V(xc)+E(xc)   XCENC  =       147.79264506
  PAW double counting   =     22185.66820217   -22134.90307502
  entropy T*S    EENTRO =        -0.00000000
  eigenvalues    EBANDS =      -449.63882774
  atomic energy  EATOM  =      2360.30888434
  ---------------------------------------------------
  free energy    TOTEN  =      -115.31339623 eV

  energy without entropy =     -115.31339623  energy(sigma->0) =     -115.31339623


--------------------------------------------------------------------------------------------------------




--------------------------------------- Iteration      1(   8)  ---------------------------------------


    POTLOK:  cpu time      0.3793: real time      0.3795
    SETDIJ:  cpu time      0.0694: real time      0.0694
    TRIAL :  cpu time      1.2615: real time      1.2619
    CORREC:  cpu time      1.2873: real time      1.2878
    CHARGE:  cpu time      0.1025: real time      0.1025
    --------------------------------------------
      LOOP:  cpu time      3.1154: real time      3.1296

 eigenvalue-minimisations  :     0
 total energy-change (2. order) :-0.6900221E+00  (-0.2354580E+00)
 number of electron      59.9999999 magnetization 
 augmentation part       -0.1788422 magnetization 

 Free energy of the ion-electron system (eV)
  ---------------------------------------------------
  alpha Z        PSCENC =        55.52509218
  Ewald energy   TEWEN  =     -1086.26724324
  -Hartree energ DENC   =     -1187.99739462
  -exchange      EXHF   =         0.00000000
  -V(xc)+E(xc)   XCENC  =       147.45325245
  PAW double counting   =     23384.02606776   -23333.12759499
  entropy T*S    EENTRO =        -0.00000000
  eigenvalues    EBANDS =      -455.92448225
  atomic energy  EATOM  =      2360.30888434
  ---------------------------------------------------
  free energy    TOTEN  =      -116.00341838 eV

  energy without entropy =     -116.00341838  energy(sigma->0) =     -116.00341838


--------------------------------------------------------------------------------------------------------




--------------------------------------- Iteration      1(   9)  ---------------------------------------


    POTLOK:  cpu time      0.3803: real time      0.3806
    SETDIJ:  cpu time      0.0666: real time      0.0666
    TRIAL :  cpu time      1.3100: real time      1.3103
    CORREC:  cpu time      1.2892: real time      1.2899
    CHARGE:  cpu time      0.1017: real time      0.1018
    --------------------------------------------
      LOOP:  cpu time      3.1653: real time      3.1781

 eigenvalue-minimisations  :     0
 total energy-change (2. order) :-0.2328840E+00  (-0.7493405E-01)
 number of electron      59.9999999 magnetization 
 augmentation part       -0.1776359 magnetization 

 Free energy of the ion-electron system (eV)
  ---------------------------------------------------
  alpha Z        PSCENC =        55.52509218
  Ewald energy   TEWEN  =     -1086.26724324
  -Hartree energ DENC   =     -1183.48046322
  -exchange      EXHF   =         0.00000000
  -V(xc)+E(xc)   XCENC  =       147.24122909
  PAW double counting   =     23486.75387805   -23435.81328811
  entropy T*S    EENTRO =        -0.00000000
  eigenvalues    EBANDS =      -460.50439149
  atomic energy  EATOM  =      2360.30888434
  ---------------------------------------------------
  free energy    TOTEN  =      -116.23630241 eV

  energy without entropy =     -116.23630241  energy(sigma->0) =     -116.23630241


--------------------------------------------------------------------------------------------------------




--------------------------------------- Iteration      1(  10)  ---------------------------------------


    POTLOK:  cpu time      0.3782: real time      0.3783
    SETDIJ:  cpu time      0.0664: real time      0.0664
    TRIAL :  cpu time      1.2556: real time      1.2560
    CORREC:  cpu time      1.2910: real time      1.2917
    CHARGE:  cpu time      0.1019: real time      0.1020
    --------------------------------------------
      LOOP:  cpu time      3.1048: real time      3.1238

 eigenvalue-minimisations  :     0
 total energy-change (2. order) :-0.7443058E-01  (-0.1711491E-01)
 number of electron      59.9999999 magnetization 
 augmentation part       -0.1773182 magnetization 

 Free energy of the ion-electron system (eV)
  ---------------------------------------------------
  alpha Z        PSCENC =        55.52509218
  Ewald energy   TEWEN  =     -1086.26724324
  -Hartree energ DENC   =     -1180.23597403
  -exchange      EXHF   =         0.00000000
  -V(xc)+E(xc)   XCENC  =       147.09180360
  PAW double counting   =     23023.17141911   -22972.23833626
  entropy T*S    EENTRO =        -0.00000000
  eigenvalues    EBANDS =      -463.66637868
  atomic energy  EATOM  =      2360.30888434
  ---------------------------------------------------
  free energy    TOTEN  =      -116.31073298 eV

  energy without entropy =     -116.31073298  energy(sigma->0) =     -116.31073298


--------------------------------------------------------------------------------------------------------




--------------------------------------- Iteration      1(  11)  ---------------------------------------


    POTLOK:  cpu time      0.3782: real time      0.3782
    SETDIJ:  cpu time      0.0663: real time      0.0663
    TRIAL :  cpu time      1.2549: real time      1.2552
    CORREC:  cpu time      1.2934: real time      1.2942
    CHARGE:  cpu time      0.1003: real time      0.1003
    --------------------------------------------
      LOOP:  cpu time      3.1087: real time      3.1235

 eigenvalue-minimisations  :     0
 total energy-change (2. order) :-0.1709456E-01  (-0.3329864E-02)
 number of electron      59.9999999 magnetization 
 augmentation part       -0.1772341 magnetization 

 Free energy of the ion-electron system (eV)
  ---------------------------------------------------
  alpha Z        PSCENC =        55.52509218
  Ewald energy   TEWEN  =     -1086.26724324
  -Hartree energ DENC   =     -1180.43276546
  -exchange      EXHF   =         0.00000000
  -V(xc)+E(xc)   XCENC  =       147.07359907
  PAW double counting   =     22746.74630847   -22695.83204246
  entropy T*S    EENTRO =        -0.00000000
  eigenvalues    EBANDS =      -463.44966045
  atomic energy  EATOM  =      2360.30888434
  ---------------------------------------------------
  free energy    TOTEN  =      -116.32782755 eV

  energy without entropy =     -116.32782755  energy(sigma->0) =     -116.32782755


--------------------------------------------------------------------------------------------------------




--------------------------------------- Iteration      1(  12)  ---------------------------------------


    POTLOK:  cpu time      0.3783: real time      0.3783
    SETDIJ:  cpu time      0.0664: real time      0.0664
    TRIAL :  cpu time      1.2582: real time      1.2588
    CORREC:  cpu time      1.2932: real time      1.2935
    CHARGE:  cpu time      0.1001: real time      0.1001
    --------------------------------------------
      LOOP:  cpu time      3.1237: real time      3.1251

 eigenvalue-minimisations  :     0
 total energy-change (2. order) :-0.3328450E-02  (-0.7552443E-03)
 number of electron      59.9999999 magnetization 
 augmentation part       -0.1772953 magnetization 

 Free energy of the ion-electron system (eV)
  ---------------------------------------------------
  alpha Z        PSCENC =        55.52509218
  Ewald energy   TEWEN  =     -1086.26724324
  -Hartree energ DENC   =     -1180.29843908
  -exchange      EXHF   =         0.00000000
  -V(xc)+E(xc)   XCENC  =       147.05046032
  PAW double counting   =     22734.28641519   -22683.37502666
  entropy T*S    EENTRO =        -0.00000000
  eigenvalues    EBANDS =      -463.56129904
  atomic energy  EATOM  =      2360.30888434
  ---------------------------------------------------
  free energy    TOTEN  =      -116.33115600 eV

  energy without entropy =     -116.33115600  energy(sigma->0) =     -116.33115600


--------------------------------------------------------------------------------------------------------




--------------------------------------- Iteration      1(  13)  ---------------------------------------


    POTLOK:  cpu time      0.3889: real time      0.3889
    SETDIJ:  cpu time      0.0663: real time      0.0663
    TRIAL :  cpu time      1.2773: real time      1.2779
    CORREC:  cpu time      1.3130: real time      1.3134
    CHARGE:  cpu time      0.1019: real time      0.1019
    --------------------------------------------
      LOOP:  cpu time      3.1609: real time      3.1777

 eigenvalue-minimisations  :     0
 total energy-change (2. order) :-0.7544144E-03  (-0.1741126E-03)
 number of electron      59.9999999 magnetization 
 augmentation part       -0.1772791 magnetization 

 Free energy of the ion-electron system (eV)
  ---------------------------------------------------
  alpha Z        PSCENC =        55.52509218
  Ewald energy   TEWEN  =     -1086.26724324
  -Hartree energ DENC   =     -1180.40731606
  -exchange      EXHF   =         0.00000000
  -V(xc)+E(xc)   XCENC  =       147.05483749
  PAW double counting   =     22760.47556752   -22709.56531920
  entropy T*S    EENTRO =        -0.00000000
  eigenvalues    EBANDS =      -463.45641345
  atomic energy  EATOM  =      2360.30888434
  ---------------------------------------------------
  free energy    TOTEN  =      -116.33191041 eV

  energy without entropy =     -116.33191041  energy(sigma->0) =     -116.33191041


--------------------------------------------------------------------------------------------------------




--------------------------------------- Iteration      1(  14)  ---------------------------------------


    POTLOK:  cpu time      0.3785: real time      0.3787
    SETDIJ:  cpu time      0.0664: real time      0.0664
    TRIAL :  cpu time      1.2581: real time      1.2584
    CORREC:  cpu time      1.3194: real time      1.3199
    CHARGE:  cpu time      0.1013: real time      0.1013
    --------------------------------------------
      LOOP:  cpu time      3.1380: real time      3.1548

 eigenvalue-minimisations  :     0
 total energy-change (2. order) :-0.1741261E-03  (-0.4314021E-04)
 number of electron      59.9999999 magnetization 
 augmentation part       -0.1772363 magnetization 

 Free energy of the ion-electron system (eV)
  ---------------------------------------------------
  alpha Z        PSCENC =        55.52509218
  Ewald energy   TEWEN  =     -1086.26724324
  -Hartree energ DENC   =     -1180.49399000
  -exchange      EXHF   =         0.00000000
  -V(xc)+E(xc)   XCENC  =       147.05905204
  PAW double counting   =     22773.02617514   -22722.11608306
  entropy T*S    EENTRO =        -0.00000000
  eigenvalues    EBANDS =      -463.37397193
  atomic energy  EATOM  =      2360.30888434
  ---------------------------------------------------
  free energy    TOTEN  =      -116.33208454 eV

  energy without entropy =     -116.33208454  energy(sigma->0) =     -116.33208454


--------------------------------------------------------------------------------------------------------




--------------------------------------- Iteration      1(  15)  ---------------------------------------


    POTLOK:  cpu time      0.3791: real time      0.3794
    SETDIJ:  cpu time      0.0664: real time      0.0664
    TRIAL :  cpu time      1.2556: real time      1.2559
    CORREC:  cpu time      1.2891: real time      1.2895
    CHARGE:  cpu time      0.1019: real time      0.1020
    --------------------------------------------
      LOOP:  cpu time      3.1211: real time      3.1223

 eigenvalue-minimisations  :     0
 total energy-change (2. order) :-0.4349294E-04  (-0.1095167E-04)
 number of electron      59.9999999 magnetization 
 augmentation part       -0.1772085 magnetization 

 Free energy of the ion-electron system (eV)
  ---------------------------------------------------
  alpha Z        PSCENC =        55.52509218
  Ewald energy   TEWEN  =     -1086.26724324
  -Hartree energ DENC   =     -1180.51078767
  -exchange      EXHF   =         0.00000000
  -V(xc)+E(xc)   XCENC  =       147.05955759
  PAW double counting   =     22774.44669307   -22723.53633716
  entropy T*S    EENTRO =        -0.00000000
  eigenvalues    EBANDS =      -463.35798714
  atomic energy  EATOM  =      2360.30888434
  ---------------------------------------------------
  free energy    TOTEN  =      -116.33212803 eV

  energy without entropy =     -116.33212803  energy(sigma->0) =     -116.33212803


--------------------------------------------------------------------------------------------------------




--------------------------------------- Iteration      1(  16)  ---------------------------------------


    POTLOK:  cpu time      0.3793: real time      0.3795
    SETDIJ:  cpu time      0.0665: real time      0.0665
    TRIAL :  cpu time      1.2550: real time      1.2553
    CORREC:  cpu time      1.2931: real time      1.2936
    CHARGE:  cpu time      0.1005: real time      0.1007
    --------------------------------------------
      LOOP:  cpu time      3.1069: real time      3.1243

 eigenvalue-minimisations  :     0
 total energy-change (2. order) :-0.1107035E-04  (-0.2969799E-05)
 number of electron      59.9999999 magnetization 
 augmentation part       -0.1772126 magnetization 

 Free energy of the ion-electron system (eV)
  ---------------------------------------------------
  alpha Z        PSCENC =        55.52509218
  Ewald energy   TEWEN  =     -1086.26724324
  -Hartree energ DENC   =     -1180.53404133
  -exchange      EXHF   =         0.00000000
  -V(xc)+E(xc)   XCENC  =       147.06100790
  PAW double counting   =     22773.25793286   -22722.34759598
  entropy T*S    EENTRO =        -0.00000000
  eigenvalues    EBANDS =      -463.33617582
  atomic energy  EATOM  =      2360.30888434
  ---------------------------------------------------
  free energy    TOTEN  =      -116.33213910 eV

  energy without entropy =     -116.33213910  energy(sigma->0) =     -116.33213910


--------------------------------------------------------------------------------------------------------




--------------------------------------- Iteration      1(  17)  ---------------------------------------


    POTLOK:  cpu time      0.3777: real time      0.3777
    SETDIJ:  cpu time      0.0664: real time      0.0664
    TRIAL :  cpu time      1.2563: real time      1.2566
    CORREC:  cpu time      1.2911: real time      1.2918
    CHARGE:  cpu time      0.0991: real time      0.0991
    --------------------------------------------
      LOOP:  cpu time      3.1067: real time      3.1193

 eigenvalue-minimisations  :     0
 total energy-change (2. order) :-0.2971366E-05  (-0.8625588E-06)
 number of electron      59.9999999 magnetization 
 augmentation part       -0.1772183 magnetization 

 Free energy of the ion-electron system (eV)
  ---------------------------------------------------
  alpha Z        PSCENC =        55.52509218
  Ewald energy   TEWEN  =     -1086.26724324
  -Hartree energ DENC   =     -1180.53338794
  -exchange      EXHF   =         0.00000000
  -V(xc)+E(xc)   XCENC  =       147.06114743
  PAW double counting   =     22774.17760634   -22723.26718916
  entropy T*S    EENTRO =        -0.00000000
  eigenvalues    EBANDS =      -463.33705203
  atomic energy  EATOM  =      2360.30888434
  ---------------------------------------------------
  free energy    TOTEN  =      -116.33214207 eV

  energy without entropy =     -116.33214207  energy(sigma->0) =     -116.33214207


--------------------------------------------------------------------------------------------------------




--------------------------------------- Iteration      1(  18)  ---------------------------------------


    POTLOK:  cpu time      0.3777: real time      0.3778
    SETDIJ:  cpu time      0.0672: real time      0.0672
    TRIAL :  cpu time      1.2541: real time      1.2544
    CORREC:  cpu time      1.3326: real time      1.3334
    CHARGE:  cpu time      0.0996: real time      0.0996
    --------------------------------------------
      LOOP:  cpu time      3.1604: real time      3.1619

 eigenvalue-minimisations  :     0
 total energy-change (2. order) :-0.8274474E-06  (-0.2199364E-06)
 number of electron      59.9999999 magnetization 
 augmentation part       -0.1772200 magnetization 

 Free energy of the ion-electron system (eV)
  ---------------------------------------------------
  alpha Z        PSCENC =        55.52509218
  Ewald energy   TEWEN  =     -1086.26724324
  -Hartree energ DENC   =     -1180.53517150
  -exchange      EXHF   =         0.00000000
  -V(xc)+E(xc)   XCENC  =       147.06124150
  PAW double counting   =     22775.05506927   -22724.14464407
  entropy T*S    EENTRO =        -0.00000000
  eigenvalues    EBANDS =      -463.33537137
  atomic energy  EATOM  =      2360.30888434
  ---------------------------------------------------
  free energy    TOTEN  =      -116.33214290 eV

  energy without entropy =     -116.33214290  energy(sigma->0) =     -116.33214290


--------------------------------------------------------------------------------------------------------




--------------------------------------- Iteration      1(  19)  ---------------------------------------


    POTLOK:  cpu time      0.3787: real time      0.3787
    SETDIJ:  cpu time      0.0665: real time      0.0665
    TRIAL :  cpu time      1.2553: real time      1.2559
    CORREC:  cpu time      1.2866: real time      1.2870
    CHARGE:  cpu time      0.1005: real time      0.1005
    --------------------------------------------
      LOOP:  cpu time      3.1014: real time      3.1172

 eigenvalue-minimisations  :     0
 total energy-change (2. order) :-0.2164088E-06  (-0.7263105E-07)
 number of electron      59.9999999 magnetization 
 augmentation part       -0.1772190 magnetization 

 Free energy of the ion-electron system (eV)
  ---------------------------------------------------
  alpha Z        PSCENC =        55.52509218
  Ewald energy   TEWEN  =     -1086.26724324
  -Hartree energ DENC   =     -1180.53178778
  -exchange      EXHF   =         0.00000000
  -V(xc)+E(xc)   XCENC  =       147.06109413
  PAW double counting   =     22775.07802442   -22724.16759700
  entropy T*S    EENTRO =        -0.00000000
  eigenvalues    EBANDS =      -463.33861016
  atomic energy  EATOM  =      2360.30888434
  ---------------------------------------------------
  free energy    TOTEN  =      -116.33214311 eV

  energy without entropy =     -116.33214311  energy(sigma->0) =     -116.33214311


--------------------------------------------------------------------------------------------------------




--------------------------------------- Iteration      1(  20)  ---------------------------------------


    POTLOK:  cpu time      0.3781: real time      0.3781
    SETDIJ:  cpu time      0.0663: real time      0.0663
    TRIAL :  cpu time      1.2739: real time      1.2746
    CORREC:  cpu time      1.2916: real time      1.2921
    EDDIAG:  cpu time      0.7836: real time      0.7847
    CHARGE:  cpu time      0.1007: real time      0.1007
    --------------------------------------------
      LOOP:  cpu time      3.9077: real time      3.9266

 eigenvalue-minimisations  :     0
 total energy-change (2. order) :-0.6319533E-07  (-0.1149144E-07)
 number of electron      59.9999999 magnetization 
 augmentation part       -0.1772196 magnetization 

 Free energy of the ion-electron system (eV)
  ---------------------------------------------------
  alpha Z        PSCENC =        55.52509218
  Ewald energy   TEWEN  =     -1086.26724324
  -Hartree energ DENC   =     -1180.53353462
  -exchange      EXHF   =         0.00000000
  -V(xc)+E(xc)   XCENC  =       147.06115759
  PAW double counting   =     22774.66139251   -22723.75099285
  entropy T*S    EENTRO =        -0.00000000
  eigenvalues    EBANDS =      -463.33689908
  atomic energy  EATOM  =      2360.30888434
  ---------------------------------------------------
  free energy    TOTEN  =      -116.33214318 eV

  energy without entropy =     -116.33214318  energy(sigma->0) =     -116.33214318


--------------------------------------------------------------------------------------------------------


  average scaling for gradient   0.9114


 average (electrostatic) potential at core
  the test charge radii are     0.5902  0.5770  0.4325
  (the norm of the test charge is              1.0000)
       1 -99.0274       2 -99.0302       3 -99.0302       4 -99.0274       5 -82.4282
       6 -82.4282       7 -82.4290       8 -82.4290       9 -82.4290      10 -82.4277
      11 -82.4283      12 -82.4293      13 -40.7516      14 -40.7516      15 -40.7519
      16 -40.7518      17 -40.7522      18 -40.7502      19 -40.7505      20 -40.7536



 E-fermi :   0.1083     XC(G=0):  -8.1803     alpha+bet : -7.0301

 Fermi energy:         0.1083412235

 k-point     1 :       0.0000    0.0000    0.0000
  band No.  band energies     occupation 
      1     -19.2796      2.00000
      2     -19.2112      2.00000
      3     -17.4143      2.00000
      4     -17.3005      2.00000
      5     -13.9524      2.00000
      6     -13.8571      2.00000
      7     -11.1397      2.00000
      8     -11.0156      2.00000
      9     -10.9552      2.00000
     10     -10.7440      2.00000
     11      -8.1838      2.00000
[...]
     44       9.6069      0.00000

 k-point    47 :       0.3333   -0.2000   -0.4286
  band No.  band energies     occupation 
      1     -19.1485      2.00000
      2     -19.1422      2.00000
      3     -17.2921      2.00000
      4     -17.2817      2.00000
      5     -13.9215      2.00000
      6     -13.9114      2.00000
      7     -10.9735      2.00000
      8     -10.9455      2.00000
      9     -10.8741      2.00000
     10     -10.8525      2.00000
     11      -7.6300      2.00000
     12      -7.5347      2.00000
     13      -7.4053      2.00000
     14      -7.3949      2.00000
     15      -6.5673      2.00000
     16      -6.5200      2.00000
     17      -5.7534      2.00000
     18      -5.7081      2.00000
     19      -5.3159      2.00000
     20      -5.2219      2.00000
     21      -4.0972      2.00000
     22      -4.0227      2.00000
     23      -3.2995      2.00000
     24      -3.2916      2.00000
     25      -2.1435      2.00000
     26      -2.0909      2.00000
     27      -1.7639      2.00000
     28      -1.7382      2.00000
     29      -0.6406      2.00000
     30      -0.5161      2.00000
     31       2.5656      0.00000
     32       2.5818      0.00000
     33       3.4002      0.00000
     34       3.4416      0.00000
     35       6.5911      0.00000
     36       6.8465      0.00000
     37       6.9318      0.00000
     38       6.9979      0.00000
     39       7.8716      0.00000
     40       7.9039      0.00000
     41       8.5886      0.00000
     42       9.0721      0.00000
     43       9.2247      0.00000
     44       9.5578      0.00000

 k-point    48 :       0.0000    0.4000    0.4286
  band No.  band energies     occupation 
      1     -19.1448      2.00000
      2     -19.1399      2.00000
      3     -17.2892      2.00000
      4     -17.2813      2.00000
      5     -13.9520      2.00000
      6     -13.9447      2.00000
      7     -10.9297      2.00000
      8     -10.9115      2.00000
      9     -10.8913      2.00000
     10     -10.8749      2.00000
     11      -7.5451      2.00000
     12      -7.4828      2.00000
     13      -7.4204      2.00000
     14      -7.3933      2.00000
     15      -6.4739      2.00000
     16      -6.4228      2.00000
     17      -5.8611      2.00000
     18      -5.8307      2.00000
     19      -5.2680      2.00000
     20      -5.2119      2.00000
     21      -4.2321      2.00000
     22      -4.1846      2.00000
     23      -3.2567      2.00000
     24      -3.2389      2.00000
     25      -2.1058      2.00000
     26      -2.0759      2.00000
     27      -1.7099      2.00000
     28      -1.6918      2.00000
     29      -0.6470      2.00000
     30      -0.5510      2.00000
     31       2.4861      0.00000
     32       2.4912      0.00000
     33       3.5356      0.00000
     34       3.5706      0.00000
     35       6.4274      0.00000
     36       6.6011      0.00000
     37       6.7259      0.00000
     38       6.7532      0.00000
     39       7.9456      0.00000
     40       8.0337      0.00000
     41       8.8929      0.00000
     42       9.1309      0.00000
     43       9.4106      0.00000
     44       9.5416      0.00000

 k-point    49 :       0.0000   -0.4000    0.4286
  band No.  band energies     occupation 
      1     -19.1448      2.00000
      2     -19.1399      2.00000
      3     -17.2892      2.00000
      4     -17.2812      2.00000
      5     -13.9521      2.00000
      6     -13.9446      2.00000
      7     -10.9296      2.00000
      8     -10.9116      2.00000
      9     -10.8912      2.00000
     10     -10.8751      2.00000
     11      -7.5450      2.00000
     12      -7.4829      2.00000
     13      -7.4204      2.00000
     14      -7.3933      2.00000
     15      -6.4740      2.00000
     16      -6.4227      2.00000
     17      -5.8610      2.00000
     18      -5.8307      2.00000
     19      -5.2681      2.00000
     20      -5.2119      2.00000
     21      -4.2317      2.00000
     22      -4.1850      2.00000
     23      -3.2568      2.00000
     24      -3.2387      2.00000
     25      -2.1058      2.00000
     26      -2.0758      2.00000
     27      -1.7098      2.00000
     28      -1.6920      2.00000
     29      -0.6470      2.00000
     30      -0.5510      2.00000
     31       2.4863      0.00000
     32       2.4909      0.00000
     33       3.5356      0.00000
     34       3.5706      0.00000
     35       6.4274      0.00000
     36       6.6011      0.00000
     37       6.7259      0.00000
     38       6.7532      0.00000
     39       7.9456      0.00000
     40       8.0327      0.00000
     41       8.8953      0.00000
     42       9.0506      0.00000
     43       9.3426      0.00000
     44       9.4885      0.00000

 k-point    50 :       0.3333    0.4000    0.4286
  band No.  band energies     occupation 
      1     -19.1436      2.00000
      2     -19.1411      2.00000
      3     -17.2873      2.00000
      4     -17.2833      2.00000
      5     -13.9505      2.00000
      6     -13.9458      2.00000
      7     -10.9371      2.00000
      8     -10.9203      2.00000
      9     -10.8777      2.00000
     10     -10.8703      2.00000
     11      -7.5475      2.00000
     12      -7.5144      2.00000
     13      -7.4194      2.00000
     14      -7.4082      2.00000
     15      -6.4250      2.00000
     16      -6.4063      2.00000
     17      -5.8024      2.00000
     18      -5.7712      2.00000
     19      -5.3763      2.00000
     20      -5.3227      2.00000
     21      -4.1350      2.00000
     22      -4.0867      2.00000
     23      -3.2940      2.00000
     24      -3.2845      2.00000
     25      -2.2192      2.00000
     26      -2.1827      2.00000
     27      -1.6491      2.00000
     28      -1.6364      2.00000
     29      -0.5740      2.00000
     30      -0.5244      2.00000
     31       2.4939      0.00000
     32       2.5029      0.00000
     33       3.5201      0.00000
     34       3.5376      0.00000
     35       6.5106      0.00000
     36       6.6766      0.00000
     37       6.7229      0.00000
     38       6.7355      0.00000
     39       7.8735      0.00000
     40       7.9768      0.00000
     41       8.3648      0.00000
     42       8.7819      0.00000
     43       9.0050      0.00000
     44       9.1708      0.00000

 k-point    51 :      -0.3333   -0.4000    0.4286
  band No.  band energies     occupation 
      1     -19.1436      2.00000
      2     -19.1411      2.00000
      3     -17.2873      2.00000
      4     -17.2833      2.00000
      5     -13.9506      2.00000
      6     -13.9457      2.00000
      7     -10.9369      2.00000
      8     -10.9205      2.00000
      9     -10.8777      2.00000
     10     -10.8703      2.00000
     11      -7.5475      2.00000
     12      -7.5144      2.00000
     13      -7.4194      2.00000
     14      -7.4082      2.00000
     15      -6.4250      2.00000
     16      -6.4063      2.00000
     17      -5.8024      2.00000
     18      -5.7711      2.00000
     19      -5.3764      2.00000
     20      -5.3226      2.00000
     21      -4.1346      2.00000
     22      -4.0871      2.00000
     23      -3.2942      2.00000
     24      -3.2843      2.00000
     25      -2.2192      2.00000
     26      -2.1827      2.00000
     27      -1.6490      2.00000
     28      -1.6365      2.00000
     29      -0.5741      2.00000
     30      -0.5242      2.00000
     31       2.4941      0.00000
     32       2.5026      0.00000
     33       3.5200      0.00000
     34       3.5377      0.00000
     35       6.5106      0.00000
     36       6.6766      0.00000
     37       6.7228      0.00000
     38       6.7355      0.00000
     39       7.8739      0.00000
     40       7.9755      0.00000
     41       8.3644      0.00000
     42       8.7713      0.00000
     43       8.9927      0.00000
     44       9.1746      0.00000

 k-point    52 :      -0.3333    0.4000   -0.4286
  band No.  band energies     occupation 
      1     -19.1436      2.00000
      2     -19.1411      2.00000
      3     -17.2873      2.00000
      4     -17.2833      2.00000
      5     -13.9506      2.00000
      6     -13.9457      2.00000
      7     -10.9368      2.00000
      8     -10.9206      2.00000
      9     -10.8778      2.00000
     10     -10.8702      2.00000
     11      -7.5475      2.00000
     12      -7.5145      2.00000
     13      -7.4194      2.00000
     14      -7.4082      2.00000
     15      -6.4250      2.00000
     16      -6.4062      2.00000
     17      -5.8024      2.00000
     18      -5.7712      2.00000
     19      -5.3763      2.00000
     20      -5.3226      2.00000
     21      -4.1346      2.00000
     22      -4.0871      2.00000
     23      -3.2942      2.00000
     24      -3.2843      2.00000
     25      -2.2192      2.00000
     26      -2.1827      2.00000
     27      -1.6489      2.00000
     28      -1.6366      2.00000
     29      -0.5741      2.00000
     30      -0.5242      2.00000
     31       2.4941      0.00000
     32       2.5026      0.00000
     33       3.5201      0.00000
     34       3.5377      0.00000
     35       6.5106      0.00000
     36       6.6765      0.00000
     37       6.7229      0.00000
     38       6.7354      0.00000
     39       7.8744      0.00000
     40       7.9751      0.00000
     41       8.3650      0.00000
     42       8.7795      0.00000
     43       9.0284      0.00000
     44       9.1621      0.00000

 k-point    53 :       0.3333   -0.4000   -0.4286
  band No.  band energies     occupation 
      1     -19.1436      2.00000
      2     -19.1411      2.00000
      3     -17.2873      2.00000
      4     -17.2833      2.00000
      5     -13.9505      2.00000
      6     -13.9458      2.00000
      7     -10.9371      2.00000
      8     -10.9203      2.00000
      9     -10.8777      2.00000
     10     -10.8703      2.00000
     11      -7.5475      2.00000
     12      -7.5144      2.00000
     13      -7.4194      2.00000
     14      -7.4082      2.00000
     15      -6.4250      2.00000
     16      -6.4063      2.00000
     17      -5.8024      2.00000
     18      -5.7711      2.00000
     19      -5.3763      2.00000
     20      -5.3226      2.00000
     21      -4.1350      2.00000
     22      -4.0867      2.00000
     23      -3.2940      2.00000
     24      -3.2845      2.00000
     25      -2.2192      2.00000
     26      -2.1827      2.00000
     27      -1.6491      2.00000
     28      -1.6364      2.00000
     29      -0.5740      2.00000
     30      -0.5244      2.00000
     31       2.4939      0.00000
     32       2.5029      0.00000
     33       3.5201      0.00000
     34       3.5377      0.00000
     35       6.5106      0.00000
     36       6.6766      0.00000
     37       6.7229      0.00000
     38       6.7355      0.00000
     39       7.8735      0.00000
     40       7.9760      0.00000
     41       8.3689      0.00000
     42       8.7818      0.00000
     43       8.9927      0.00000
     44       9.1764      0.00000


--------------------------------------------------------------------------------------------------------


 soft charge-density along one line, spin component           1
         0         1         2         3         4         5         6         7         8         9
 total charge-density along one line

 pseudopotential strength for first ion, spin component:           1
 19.855  27.808  -0.000   0.000  -0.071  -0.000   0.000  -0.106
 27.808  38.947  -0.000   0.000  -0.100  -0.000   0.000  -0.148
 -0.000  -0.000  -5.845   0.000  -0.000  -8.770   0.000  -0.000
  0.000   0.000   0.000  -5.845  -0.000   0.000  -8.771  -0.000
 -0.071  -0.100  -0.000  -0.000  -5.825  -0.000  -0.000  -8.741
 -0.000  -0.000  -8.770   0.000  -0.000 -13.140   0.000  -0.000
  0.000   0.000   0.000  -8.771  -0.000   0.000 -13.141  -0.000
 -0.106  -0.148  -0.000  -0.000  -8.741  -0.000  -0.000 -13.096
 total augmentation occupancy for first ion, spin component:           1
 10.675  -5.147   0.000   0.000  -4.548  -0.000   0.000   2.115
 -5.147   2.772  -0.000  -0.000   2.914   0.000  -0.000  -1.184
  0.000  -0.000   7.938   1.947   0.000  -3.310  -0.971  -0.000
  0.000  -0.000   1.947   4.399   0.000  -0.971  -1.543  -0.000
 -4.548   2.914   0.000   0.000   5.472  -0.000  -0.000  -1.859
 -0.000   0.000  -3.310  -0.971  -0.000   1.410   0.465   0.000
  0.000  -0.000  -0.971  -1.543  -0.000   0.465   0.562   0.000
  2.115  -1.184  -0.000  -0.000  -1.859   0.000   0.000   0.731


------------------------ aborting loop because EDIFF is reached ----------------------------------------


    FORLOC:  cpu time      0.0047: real time      0.0047
    FORNL :  cpu time      0.2814: real time      0.2815
    FORCOR:  cpu time      0.4452: real time      0.4462
    OFIELD:  cpu time      0.0026: real time      0.0027

 VOLUME and BASIS-vectors are now :
 -----------------------------------------------------------------------------
  energy-cutoff  :     1000.00
  volume of cell :      203.64
      direct lattice vectors                 reciprocal lattice vectors
     9.325000000  0.000000000  0.000000000     0.107238606  0.000000000  0.000000000
     0.000000000  5.850000000  0.000000000     0.000000000  0.170940171  0.000000000
     0.000000000  0.000000000  3.733000000     0.000000000  0.000000000  0.267881061

  length of vectors
     9.325000000  5.850000000  3.733000000     0.107238606  0.170940171  0.267881061


 FORCES acting on ions:
    Electron-Ion                     Ewald-Force                    Non-Local-Force
 -----------------------------------------------------------------------------------------------
   -.182E+03 0.234E-02 0.382E-03   0.218E+03 -.168E-02 -.193E-02   -.357E+02 0.522E-03 0.428E-03
   0.182E+03 -.233E-02 -.386E-03   -.218E+03 0.347E-02 -.431E-04   0.357E+02 -.522E-03 -.428E-03
   -.182E+03 0.809E-03 -.368E-02   0.218E+03 -.103E-01 0.532E-02   -.357E+02 -.134E-02 0.943E-03
   0.182E+03 -.146E-01 0.630E-02   -.218E+03 0.851E-02 -.476E-02   0.357E+02 0.134E-02 -.943E-03
   -.437E+02 -.131E+03 -.435E+02   0.417E+02 0.135E+03 0.455E+02   0.208E+01 -.425E+01 -.198E+01
   -.437E+02 0.131E+03 0.435E+02   0.417E+02 -.135E+03 -.455E+02   0.208E+01 0.425E+01 0.198E+01
   0.437E+02 -.131E+03 -.435E+02   -.417E+02 0.135E+03 0.455E+02   -.208E+01 -.425E+01 -.198E+01
   0.437E+02 0.131E+03 0.435E+02   -.417E+02 -.135E+03 -.455E+02   -.208E+01 0.425E+01 0.198E+01
   -.437E+02 0.131E+03 -.435E+02   0.417E+02 -.135E+03 0.455E+02   0.209E+01 0.425E+01 -.198E+01
   0.436E+02 0.131E+03 -.435E+02   -.417E+02 -.135E+03 0.455E+02   -.208E+01 0.425E+01 -.198E+01
   0.437E+02 -.131E+03 0.435E+02   -.417E+02 0.135E+03 -.455E+02   -.209E+01 -.425E+01 0.198E+01
   -.437E+02 -.131E+03 0.435E+02   0.417E+02 0.135E+03 -.455E+02   0.208E+01 -.425E+01 0.198E+01
   -.206E+02 -.436E+02 -.169E+02   0.238E+02 0.482E+02 0.190E+02   -.318E+01 -.464E+01 -.215E+01
   -.206E+02 0.436E+02 0.169E+02   0.238E+02 -.482E+02 -.190E+02   -.318E+01 0.464E+01 0.215E+01
   0.206E+02 -.436E+02 -.169E+02   -.238E+02 0.482E+02 0.190E+02   0.318E+01 -.464E+01 -.215E+01
   0.206E+02 0.436E+02 0.169E+02   -.238E+02 -.482E+02 -.190E+02   0.318E+01 0.464E+01 0.215E+01
   -.206E+02 0.436E+02 -.169E+02   0.238E+02 -.482E+02 0.190E+02   -.318E+01 0.464E+01 -.215E+01
   0.206E+02 0.436E+02 -.169E+02   -.238E+02 -.482E+02 0.190E+02   0.318E+01 0.465E+01 -.215E+01
   0.206E+02 -.436E+02 0.169E+02   -.238E+02 0.482E+02 -.190E+02   0.318E+01 -.464E+01 0.215E+01
   -.206E+02 -.436E+02 0.169E+02   0.238E+02 0.482E+02 -.190E+02   -.318E+01 -.465E+01 0.215E+01
 -----------------------------------------------------------------------------------------------
   -.962E-01 -.199E-01 -.150E-01   0.103E-12 0.924E-13 -.284E-13   0.000E+00 0.888E-15 0.000E+00


 POSITION                                       TOTAL-FORCE (eV/Angst)
 -----------------------------------------------------------------------------------
      1.40499      5.84998      3.73298         0.142560      0.000273     -0.000138
      7.92001      0.00002      0.00002        -0.142560     -0.000273      0.000138
      6.06753      2.92509      1.86644         0.140990     -0.002984      0.000964
      3.25751      2.92492      1.86655        -0.140990      0.002984     -0.000964
      0.69837      1.04338      0.46255         0.033718      0.089609      0.032068
      0.69833      4.80661      3.27042         0.033497     -0.089672     -0.031767
      8.62667      1.04336      0.46258        -0.033497      0.089672      0.031767
      8.62664      4.80665      3.27047        -0.033718     -0.089609     -0.032068
      5.36087      1.88165      2.32904         0.038476     -0.088615      0.031676
      3.96423      1.88163      2.32910        -0.034240     -0.089916      0.031902
      3.96417      3.96836      1.40396        -0.038476      0.088615     -0.031676
      5.36082      3.96839      1.40390         0.034240      0.089916     -0.031902
      1.26653      1.89307      0.85086         0.000059      0.009822      0.003888
      1.26646      3.95691      2.88208         0.000141     -0.010047     -0.003844
      8.05853      1.89309      0.85095        -0.000141      0.010047      0.003844
      8.05845      3.95691      2.88216        -0.000059     -0.009822     -0.003888
      5.92917      1.03196      2.71734        -0.001186     -0.008866      0.003461
      3.39616      1.03191      2.71749        -0.000758     -0.010823      0.004137
      3.39587      4.81806      1.01566         0.001186      0.008866     -0.003461
      5.92889      4.81810      1.01552         0.000758      0.010823     -0.004137
 -----------------------------------------------------------------------------------
    total drift:                               -0.096230     -0.019900     -0.014981


--------------------------------------------------------------------------------------------------------



  FREE ENERGIE OF THE ION-ELECTRON SYSTEM (eV)
  ---------------------------------------------------
  free  energy   TOTEN  =      -116.33214318 eV

  energy  without entropy=     -116.33214318  energy(sigma->0) =     -116.33214318



--------------------------------------------------------------------------------------------------------


    POTLOK:  cpu time      0.4518: real time      0.4519


--------------------------------------------------------------------------------------------------------


 stress matrix after NEB project (eV)
      0.00000      0.00000      0.00000
      0.00000      0.00000      0.00000
      0.00000      0.00000      0.00000
  FORCES: max atom, RMS     0.142561    0.090357
  FORCE total and by dimension    0.404090    0.142560
  Stress total and by dimension    0.000000    0.000000
     LOOP+:  cpu time     64.6341: real time     64.9546
    4ORBIT:  cpu time      0.0000: real time      0.0000

 total amount of memory used by VASP MPI-rank0    41580. kBytes
=======================================================================

   base      :      30000. kBytes
   nonl-proj :       2728. kBytes
   fftplans  :        533. kBytes
   grid      :        819. kBytes
   one-center:          3. kBytes
   wavefun   :       7497. kBytes

  
  
 General timing and accounting informations for this job:
 ========================================================
  
                  Total CPU time used (sec):       86.591
                            User time (sec):       84.387
                          System time (sec):        2.205
                         Elapsed time (sec):       90.403
  
                   Maximum memory used (kb):      284692.
                   Average memory used (kb):          N/A
  
                          Minor page faults:       131915
                          Major page faults:          279
                 Voluntary context switches:         6034
