 vasp.6.4.1 05Apr23 (build Jun  6 2023 14:46:38) gamma-only                      
 executed on        HPECrayEX_GCC date 2024.08.21  18:21:50
 running  512 mpi-ranks, with    1 threads/rank, on    4 nodes
 distrk:  each k-point on  256 cores,    2 groups
 distr:  one band on NCORE=  32 cores,    8 groups


--------------------------------------------------------------------------------------------------------


 INCAR:
   ALGO = Conjugate
   KPAR = 2
   NCORE = 32
   ISMEAR = 0
   SIGMA = 0.01
   PREC = Accurate
   EDIFF = 1E-7
   ENCUT = 1000
   ISIF = 0
   METAGGA = SCAN
   LUSE_VDW = .TRUE.
   BPARAM = 15.7
   LASPH = .TRUE.
   SYMPREC = 1E-7
   NELM = 200
   LWAVE = .FALSE.
   LCHARG = .FALSE.

 POTCAR:    PAW_PBE C_h 06Feb2004                 
 POTCAR:    PAW_PBE H_h 06Feb2004                 
 POTCAR:    PAW_PBE N_h 06Feb2004                 
 POTCAR:    PAW_PBE O_h 06Feb2004                 
 -----------------------------------------------------------------------------
|                                                                             |
|               ----> ADVICE to this user running VASP <----                  |
|                                                                             |
|     You have switched on vdW-DFT.                                           |
|     This routine was written and supplied by Jiri Klimes. We recommend      |
|     that you carefully read and cite the following publications:            |
|       J. Klimes, D.R. Bowler, A. Michelides                                 |
|          J. Phys.: Cond Matt. 22 022201 (2010)                              |
|       J. Klimes, D.R. Bowler, A. Michelides                                 |
|          Phys. Rev. B. 83, 195131 (2011)                                    |
|     and references therein.                                                 |
|                                                                             |
 -----------------------------------------------------------------------------

 POTCAR:    PAW_PBE C_h 06Feb2004                 
   VRHFIN =C: s2p2                                                                                  
   LEXCH  = PE                                                                                      
   EATOM  =   147.1560 eV,   10.8157 Ry                                                             
                                                                                                    
   TITEL  = PAW_PBE C_h 06Feb2004                                                                   
   LULTRA =        F    use ultrasoft PP ?                                                          
   IUNSCR =        1    unscreen: 0-lin 1-nonlin 2-no                                               
   RPACOR =    0.800    partial core radius                                                         
   POMASS =   12.011; ZVAL   =    4.000    mass and valenz                                          
   RCORE  =    1.100    outmost cutoff radius                                                       
   RWIGS  =    1.630; RWIGS  =    0.863    wigner-seitz radius (au A)                               
   ENMAX  =  700.000; ENMIN  =  500.000 eV                                                          
   ICORE  =        2    local potential                                                             
   LCOR   =        T    correct aug charges                                                         
   LPAW   =        T    paw PP                                                                      
   EAUG   =  946.768                                                                                
   DEXC   =    0.000                                                                                
   RMAX   =    1.128    core radius for proj-oper                                                   
   RAUG   =    1.300    factor for augmentation sphere                                              
   RDEP   =    1.162    radius for radial grids                                                     
   RDEPT  =    1.088    core radius for aug-charge                                                  
                                                                                                    
   Atomic configuration                                                                             
    4 entries                                                                                       
     n  l   j            E        occ.                                                              
     1  0  0.50      -273.3789   2.0000                                                             
     2  0  0.50       -13.7508   2.0000                                                             
     2  1  0.50        -5.2854   2.0000                                                             
     3  2  1.50        -5.4423   0.0000                                                             
   Description                                                                                      
     l       E           TYP  RCUT    TYP  RCUT                                                     
     0    -13.7508458     23  1.100                                                                 
     0     -8.2022199     23  1.100                                                                 
     1     -5.2854383     23  1.100                                                                 
     1      1.1560700     23  1.100                                                                 
     2     -5.4423304      7  1.100                                                                 
  local pseudopotential read in
  partial core-charges read in
  partial kinetic energy density read in
  atomic valenz-charges read in
  non local Contribution for L=           0  read in
    real space projection operators read in
  non local Contribution for L=           0  read in
    real space projection operators read in
  non local Contribution for L=           1  read in
    real space projection operators read in
  non local Contribution for L=           1  read in
    real space projection operators read in
    PAW grid and wavefunctions read in

   number of l-projection  operators is LMAX  =           4
   number of lm-projection operators is LMMAX =           8

 POTCAR:    PAW_PBE H_h 06Feb2004                 
   VRHFIN =H: ultrasoft test                                                                        
   LEXCH  = PE                                                                                      
   EATOM  =    12.4884 eV,    0.9179 Ry                                                             
                                                                                                    
   TITEL  = PAW_PBE H_h 06Feb2004                                                                   
   LULTRA =        F    use ultrasoft PP ?                                                          
   IUNSCR =        0    unscreen: 0-lin 1-nonlin 2-no                                               
   RPACOR =    0.000    partial core radius                                                         
   POMASS =    1.000; ZVAL   =    1.000    mass and valenz                                          
   RCORE  =    0.800    outmost cutoff radius                                                       
   RWIGS  =    0.700; RWIGS  =    0.370    wigner-seitz radius (au A)                               
   ENMAX  =  700.000; ENMIN  =  350.000 eV                                                          
   RCLOC  =    0.701    cutoff for local pot                                                        
   LCOR   =        T    correct aug charges                                                         
   LPAW   =        T    paw PP                                                                      
   EAUG   = 1000.000                                                                                
   RMAX   =    0.819    core radius for proj-oper                                                   
   RAUG   =    1.000    factor for augmentation sphere                                              
   RDEP   =    0.817    radius for radial grids                                                     
   RDEPT  =    0.817    core radius for aug-charge                                                  
                                                                                                    
   Atomic configuration                                                                             
    2 entries                                                                                       
     n  l   j            E        occ.                                                              
     1  0  0.50        -6.4927   1.0000                                                             
     2  1  0.50        -3.4015   0.0000                                                             
   Description                                                                                      
     l       E           TYP  RCUT    TYP  RCUT                                                     
     0     -6.4927493     23  0.800                                                                 
     0      6.8029130     23  0.800                                                                 
     1     -6.8029130     23  0.800                                                                 
  local pseudopotential read in
  atomic valenz-charges read in
  non local Contribution for L=           0  read in
    real space projection operators read in
  non local Contribution for L=           0  read in
    real space projection operators read in
  non local Contribution for L=           1  read in
    real space projection operators read in
    PAW grid and wavefunctions read in

   number of l-projection  operators is LMAX  =           3
   number of lm-projection operators is LMMAX =           5

 POTCAR:    PAW_PBE N_h 06Feb2004                 
   VRHFIN =N: s2p3                                                                                  
   LEXCH  = PE                                                                                      
   EATOM  =   264.5486 eV,   19.4438 Ry                                                             
                                                                                                    
   TITEL  = PAW_PBE N_h 06Feb2004                                                                   
   LULTRA =        F    use ultrasoft PP ?                                                          
   IUNSCR =        1    unscreen: 0-lin 1-nonlin 2-no                                               
   RPACOR =    0.800    partial core radius                                                         
   POMASS =   14.001; ZVAL   =    5.000    mass and valenz                                          
   RCORE  =    1.100    outmost cutoff radius                                                       
   RWIGS  =    1.480; RWIGS  =    0.783    wigner-seitz radius (au A)                               
   ENMAX  =  700.000; ENMIN  =  500.000 eV                                                          
   ICORE  =        2    local potential                                                             
   LCOR   =        T    correct aug charges                                                         
   LPAW   =        T    paw PP                                                                      
   EAUG   =  904.640                                                                                
   DEXC   =    0.000                                                                                
   RMAX   =    1.127    core radius for proj-oper                                                   
   RAUG   =    1.300    factor for augmentation sphere                                              
   RDEP   =    1.115    radius for radial grids                                                     
   RDEPT  =    1.106    core radius for aug-charge                                                  
                                                                                                    
   Atomic configuration                                                                             
    4 entries                                                                                       
     n  l   j            E        occ.                                                              
     1  0  0.50      -384.7179   2.0000                                                             
     2  0  0.50       -18.5828   2.0000                                                             
     2  1  0.50        -7.0898   3.0000                                                             
     3  2  1.50        -6.8029   0.0000                                                             
   Description                                                                                      
     l       E           TYP  RCUT    TYP  RCUT                                                     
     0    -18.5828117     23  1.100                                                                 
     0    -15.0750597     23  1.100                                                                 
     1     -7.0897851     23  1.100                                                                 
     1     -1.9663412     23  1.100                                                                 
     2     -6.8029130      7  1.100                                                                 
  local pseudopotential read in
  partial core-charges read in
  partial kinetic energy density read in
  kinetic energy density of atom read in
  atomic valenz-charges read in
  non local Contribution for L=           0  read in
    real space projection operators read in
  non local Contribution for L=           0  read in
    real space projection operators read in
  non local Contribution for L=           1  read in
    real space projection operators read in
  non local Contribution for L=           1  read in
    real space projection operators read in
    PAW grid and wavefunctions read in

   number of l-projection  operators is LMAX  =           4
   number of lm-projection operators is LMMAX =           8

 POTCAR:    PAW_PBE O_h 06Feb2004                 
   VRHFIN =O: s2p4                                                                                  
   LEXCH  = PE                                                                                      
   EATOM  =   432.3788 eV,   31.7789 Ry                                                             
                                                                                                    
   TITEL  = PAW_PBE O_h 06Feb2004                                                                   
   LULTRA =        F    use ultrasoft PP ?                                                          
   IUNSCR =        1    unscreen: 0-lin 1-nonlin 2-no                                               
   RPACOR =    0.800    partial core radius                                                         
   POMASS =   16.000; ZVAL   =    6.000    mass and valenz                                          
   RCORE  =    1.100    outmost cutoff radius                                                       
   RWIGS  =    1.400; RWIGS  =    0.741    wigner-seitz radius (au A)                               
   ENMAX  =  700.000; ENMIN  =  500.000 eV                                                          
   ICORE  =        2    local potential                                                             
   LCOR   =        T    correct aug charges                                                         
   LPAW   =        T    paw PP                                                                      
   EAUG   =  888.804                                                                                
   DEXC   =    0.000                                                                                
   RMAX   =    1.128    core radius for proj-oper                                                   
   RAUG   =    1.300    factor for augmentation sphere                                              
   RDEP   =    1.125    radius for radial grids                                                     
   RDEPT  =    1.088    core radius for aug-charge                                                  
                                                                                                    
   Atomic configuration                                                                             
    4 entries                                                                                       
     n  l   j            E        occ.                                                              
     1  0  0.50      -514.6923   2.0000                                                             
     2  0  0.50       -23.9615   2.0000                                                             
     2  1  0.50        -9.0305   4.0000                                                             
     3  2  1.50        -9.5241   0.0000                                                             
   Description                                                                                      
     l       E           TYP  RCUT    TYP  RCUT                                                     
     0    -23.9615319     23  1.100                                                                 
     0    -25.3221145     23  1.100                                                                 
     1     -9.0304911     23  1.100                                                                 
     1     -5.4802209     23  1.100                                                                 
     2     -9.5240782      7  1.100                                                                 
  local pseudopotential read in
  partial core-charges read in
  partial kinetic energy density read in
  atomic valenz-charges read in
  non local Contribution for L=           0  read in
    real space projection operators read in
  non local Contribution for L=           0  read in
    real space projection operators read in
  non local Contribution for L=           1  read in
    real space projection operators read in
  non local Contribution for L=           1  read in
    real space projection operators read in
    PAW grid and wavefunctions read in

   number of l-projection  operators is LMAX  =           4
   number of lm-projection operators is LMMAX =           8

  PAW_PBE C_h 06Feb2004                 :
 energy of atom  1       EATOM= -147.1560
 kinetic energy error for atom=    0.0031 (will be added to EATOM!!)
  PAW_PBE H_h 06Feb2004                 :
 energy of atom  2       EATOM=  -12.4884
 kinetic energy error for atom=    0.0006 (will be added to EATOM!!)
  PAW_PBE N_h 06Feb2004                 :
 energy of atom  3       EATOM= -264.5486
 kinetic energy error for atom=    0.0081 (will be added to EATOM!!)
  PAW_PBE O_h 06Feb2004                 :
 energy of atom  4       EATOM= -432.3788
 kinetic energy error for atom=    0.0171 (will be added to EATOM!!)


 POSCAR:  C  H  N  O
  positions in cartesian coordinates
  No initial velocities read in

 METAGGA = SCAN                                        LMAXTAU =  6    LMIXTAU =  F

 exchange correlation table for  LEXCH =        8
   RHO(1)=    0.500       N(1)  =     2000
   RHO(2)=  100.500       N(2)  =     4000

 VTST: version 4.1, (05/19/21)

 CHAIN: initializing optimizer
 
 OPT: Using VASP Dynamics algorithm
 CHAIN: Read ICHAIN            0

 POSCAR:  C  H  N  O
  positions in cartesian coordinates
  No initial velocities read in



--------------------------------------------------------------------------------------------------------


 ion  position               nearest neighbor table
   1  0.464  0.554  0.507-  12 1.22  13 1.37  11 1.37
   2  0.553  0.494  0.504-   7 1.10   6 1.10  13 1.45   3 1.51
   3  0.571  0.428  0.496-   9 1.10  10 1.10   8 1.10   2 1.51
   4  0.379  0.591  0.502-  11 1.01
   5  0.381  0.513  0.491-  11 1.01
   6  0.568  0.512  0.548-   2 1.10
   7  0.573  0.523  0.469-   2 1.10
   8  0.621  0.424  0.498-   3 1.10
   9  0.551  0.400  0.532-   3 1.10
  10  0.556  0.411  0.452-   3 1.10
  11  0.402  0.551  0.506-   4 1.01   5 1.01   1 1.37
  12  0.494  0.600  0.514-   1 1.22
  13  0.488  0.497  0.501-   1 1.37   2 1.45

  LATTYP: Found a simple cubic cell.
 ALAT       =    22.0000000000
  
  Lattice vectors:
  
 A1 = (  22.0000000000,   0.0000000000,   0.0000000000)
 A2 = (   0.0000000000,  22.0000000000,   0.0000000000)
 A3 = (   0.0000000000,   0.0000000000,  22.0000000000)


Analysis of symmetry for initial positions (statically):
=====================================================================
 Subroutine PRICEL returns:
 Original cell was already a primitive cell.
 

 Routine SETGRP: Setting up the symmetry group for a 
 simple cubic supercell.


 Subroutine GETGRP returns: Found  1 space group operations
 (whereof  1 operations were pure point group operations)
 out of a pool of 48 trial point group operations.


The static configuration has the point symmetry C_1 .


Analysis of symmetry for dynamics (positions and initial velocities):
=====================================================================
 Subroutine PRICEL returns:
 Original cell was already a primitive cell.
 

 Routine SETGRP: Setting up the symmetry group for a 
 simple cubic supercell.


 Subroutine GETGRP returns: Found  1 space group operations
 (whereof  1 operations were pure point group operations)
 out of a pool of 48 trial point group operations.


The dynamic configuration has the point symmetry C_1 .


 Subroutine INISYM returns: Found  1 space group operations
 (whereof  1 operations are pure point group operations),
 and found     1 'primitive' translations


----------------------------------------------------------------------------------------

                                     Primitive cell                                     

  volume of cell :   10648.0000

  direct lattice vectors                    reciprocal lattice vectors
    22.000000000  0.000000000  0.000000000     0.045454545  0.000000000  0.000000000
     0.000000000 22.000000000  0.000000000     0.000000000  0.045454545  0.000000000
     0.000000000  0.000000000 22.000000000     0.000000000  0.000000000  0.045454545

  length of vectors
    22.000000000 22.000000000 22.000000000     0.045454545  0.045454545  0.045454545

  position of ions in fractional coordinates (direct lattice)
     0.463796591  0.554123182  0.507026818
     0.553412045  0.494109545  0.504079545
     0.571163409  0.428184545  0.495987273
     0.379272955  0.591287727  0.501821818
     0.380962500  0.513057273  0.491213182
     0.567866591  0.512196818  0.548240909
     0.572672045  0.523304091  0.468542273
     0.620727045  0.423735000  0.498431364
     0.551095682  0.399841364  0.531686364
     0.556052500  0.410969545  0.451759091
     0.401658864  0.551424091  0.505683182
     0.493612500  0.600158636  0.514251364
     0.487551136  0.497080909  0.500602273

  ion indices of the primitive-cell ions
   primitive index   ion index
                 1           1
                 2           2
                 3           3
                 4           4
                 5           5
                 6           6
                 7           7
                 8           8
                 9           9
                10          10
                11          11
                12          12
                13          13

----------------------------------------------------------------------------------------



 KPOINTS: auto                                    

Automatic generation of k-mesh.
 Grid dimensions read from file:
 generate k-points for:    1    1    1

 Generating k-lattice:

  Cartesian coordinates                     Fractional coordinates (reciprocal lattice)
     0.045454545  0.000000000  0.000000000     1.000000000  0.000000000  0.000000000
     0.000000000  0.045454545  0.000000000     0.000000000  1.000000000  0.000000000
     0.000000000  0.000000000  0.045454545     0.000000000  0.000000000  1.000000000

  Length of vectors
     0.045454545  0.045454545  0.045454545

  Shift w.r.t. Gamma in fractional coordinates (k-lattice)
     0.000000000  0.000000000  0.000000000

 
 Subroutine IBZKPT returns following result:
 ===========================================
 
 Found      1 irreducible k-points:
 
 Following reciprocal coordinates:
            Coordinates               Weight
  0.000000  0.000000  0.000000      1.000000
 
 Following cartesian coordinates:
            Coordinates               Weight
  0.000000  0.000000  0.000000      1.000000
 


--------------------------------------------------------------------------------------------------------




 Dimension of arrays:
   k-points           NKPTS =      1   k-points in BZ     NKDIM =      1   number of bands    NBANDS=     32
   number of dos      NEDOS =    301   number of ions     NIONS =     13
   non local maximal  LDIM  =      4   non local SUM 2l+1 LMDIM =      8
   total plane-waves  NPLWV = ******
   max r-space proj   IRMAX =      1   max aug-charges    IRDMAX=   9667
   dimension x,y,z NGX =   240 NGY =  240 NGZ =  240
   dimension x,y,z NGXF=   480 NGYF=  480 NGZF=  480
   support grid    NGXF=   480 NGYF=  480 NGZF=  480
   ions per type =               3   7   1   2
   NGX,Y,Z   is equivalent  to a cutoff of  18.14, 18.14, 18.14 a.u.
   NGXF,Y,Z  is equivalent  to a cutoff of  36.27, 36.27, 36.27 a.u.

 SYSTEM =  unknown system                          
 POSCAR =   C  H  N  O                             

 Startparameter for this run:
   NWRITE =      2    write-flag & timer
   PREC   = accura    normal or accurate (medium, high low for compatibility)
   ISTART =      0    job   : 0-new  1-cont  2-samecut
   ICHARG =      2    charge: 1-file 2-atom 10-const
   ISPIN  =      1    spin polarized calculation?
   LNONCOLLINEAR =      F non collinear calculations
   LSORBIT =      F    spin-orbit coupling
   INIWAV =      1    electr: 0-lowe 1-rand  2-diag
   LASPH  =      T    aspherical Exc in radial PAW
 Electronic Relaxation 1
   ENCUT  = 1000.0 eV  73.50 Ry    8.57 a.u.  56.73 56.73 56.73*2*pi/ulx,y,z
   ENINI  = 1000.0     initial cutoff
   ENAUG  = 1000.0 eV  augmentation charge cutoff
   NELM   =    200;   NELMIN=  2; NELMDL= -5     # of ELM steps 
   EDIFF  = 0.1E-06   stopping-criterion for ELM
   LREAL  =      F    real-space projection
   NLSPLINE    = F    spline interpolate recip. space projectors
   LCOMPAT=      F    compatible to vasp.4.4
   GGA_COMPAT  = T    GGA compatible to vasp.4.4-vasp.4.6
   LMAXPAW     = -100 max onsite density
   LMAXMIX     =    2 max onsite mixed and CHGCAR
   VOSKOWN=      0    Vosko Wilk Nusair interpolation
   ROPT   =    0.00000   0.00000   0.00000   0.00000
 Ionic relaxation
   EDIFFG = 0.1E-05   stopping-criterion for IOM
   NSW    =      0    number of steps for IOM
   NBLOCK =      1;   KBLOCK =      1    inner block; outer block 
   IBRION =     -1    ionic relax: 0-MD 1-quasi-New 2-CG
   NFREE  =      0    steps in history (QN), initial steepest desc. (CG)
   ISIF   =      0    stress and relaxation
   IWAVPR =     10    prediction:  0-non 1-charg 2-wave 3-comb
   ISYM   =      2    0-nonsym 1-usesym 2-fastsym
   LCORR  =      T    Harris-Foulkes like correction to forces

   POTIM  = 0.5000    time-step for ionic-motion
   TEIN   =    0.0    initial temperature
   TEBEG  =    0.0;   TEEND  =   0.0 temperature during run
   SMASS  =  -3.00    Nose mass-parameter (am)
   estimated Nose-frequenzy (Omega)   =  0.10E-29 period in steps = 0.13E+47 mass=  -0.111E-25a.u.
   SCALEE = 1.0000    scale energy and forces
   NPACO  =    256;   APACO  = 10.0  distance and # of slots for P.C.
   PSTRESS=    0.0 pullay stress

  Mass of Ions in am
   POMASS =  12.01  1.00 14.00 16.00
  Ionic Valenz
   ZVAL   =   4.00  1.00  5.00  6.00
  Atomic Wigner-Seitz radii
   RWIGS  =  -1.00 -1.00 -1.00 -1.00
  virtual crystal weights 
   VCA    =   1.00  1.00  1.00  1.00
   NELECT =      36.0000    total number of electrons
   NUPDOWN=      -1.0000    fix difference up-down

 DOS related values:
   EMIN   =  10.00;   EMAX   =-10.00  energy-range for DOS
   EFERMI =   0.00;   METHOD = LEGACY      
   ISMEAR =     0;   SIGMA  =   0.01  broadening in eV -4-tet -1-fermi 0-gaus

 Electronic relaxation 2 (details)
   IALGO  =     58    algorithm
   LDIAG  =      T    sub-space diagonalisation (order eigenvalues)
   LSUBROT=      F    optimize rotation matrix (better conditioning)
   TURBO    =      0    0=normal 1=particle mesh
   IRESTART =      0    0=no restart 2=restart with 2 vectors
   NREBOOT  =      0    no. of reboots
   NMIN     =      0    reboot dimension
   EREF     =   0.00    reference energy to select bands
   IMIX   =      4    mixing-type and parameters
     AMIX     =   0.40;   BMIX     =  1.00
     AMIX_MAG =   1.60;   BMIX_MAG =  1.00
     AMIN     =   0.10
     WC   =   100.;   INIMIX=   1;  MIXPRE=   1;  MAXMIX= -45

 Intra band minimization:
   WEIMIN = 0.0000     energy-eigenvalue tresh-hold
   EBREAK =  0.78E-09  absolut break condition
   DEPER  =   0.30     relativ break condition  

   TIME   =   0.40     timestep for ELM

  volume/ion in A,a.u.               =     819.08      5527.40
  Fermi-wavevector in a.u.,A,eV,Ry     =   0.245708  0.464321  0.821418  0.060373
  Thomas-Fermi vector in A             =   1.056973

 Write flags
   LWAVE        =      F    write WAVECAR
   LDOWNSAMPLE  =      F    k-point downsampling of WAVECAR
   LCHARG       =      F    write CHGCAR
   LVTOT        =      F    write LOCPOT, total local potential
   LVHAR        =      F    write LOCPOT, Hartree potential only
   LELF         =      F    write electronic localiz. function (ELF)
   LORBIT       =      0    0 simple, 1 ext, 2 COOP (PROOUT), +10 PAW based schemes


 Dipole corrections
   LMONO  =      F    monopole corrections only (constant potential shift)
   LDIPOL =      F    correct potential (dipole corrections)
   IDIPOL =      0    1-x, 2-y, 3-z, 4-all directions 
   EPSILON=  1.0000000 bulk dielectric constant

 Exchange correlation treatment:
   GGA     =    --    GGA type
   LEXCH   =     8    internal setting for exchange type
   LIBXC   =     F    Libxc                    
   VOSKOWN =     0    Vosko Wilk Nusair interpolation
   LHFCALC =     F    Hartree Fock is set to
   LHFONE  =     F    Hartree Fock one center treatment
   AEXX    =    0.0000 exact exchange contribution

 vdW DFT:
   LUSE_VDW   =     T    switch on vdW DFT
   IVDW_NL    =     2    kernel type
   LSPIN_VDW  =     F    use spin-polarized vdW DFT
   Zab_VDW    =-.8491    correlation parameter
   PARAM1     =0.1234
   PARAM2     =1.0000
   PARAM3     =0.0000
   -- rVV10 --
   BPARAM     =15.7000
   CPARAM     = 0.0093

 Linear response parameters
   LEPSILON=     F    determine dielectric tensor
   LRPA    =     F    only Hartree local field effects (RPA)
   LNABLA  =     F    use nabla operator in PAW spheres
   LVEL    =     F    velocity operator in full k-point grid
   CSHIFT  =0.1000    complex shift for real part using Kramers Kronig
   OMEGAMAX=  -1.0    maximum frequency
   DEG_THRESHOLD= 0.2000000E-02 threshold for treating states as degnerate
   RTIME   =   -0.100 relaxation time in fs
  (WPLASMAI=    0.000 imaginary part of plasma frequency in eV, 0.658/RTIME)
   DFIELD  = 0.0000000 0.0000000 0.0000000 field for delta impulse in time

  Optional k-point grid parameters
   LKPOINTS_OPT  =     F    use optional k-point grid
   KPOINTS_OPT_MODE=     1    mode for optional k-point grid

 Orbital magnetization related:
   ORBITALMAG=     F  switch on orbital magnetization
   LCHIMAG   =     F  perturbation theory with respect to B field
   DQ        =  0.001000  dq finite difference perturbation B field
   LLRAUG    =     F  two centre corrections for induced B field
   LBONE     =     F  B-component reconstruction in AE one-centre
   LVGVCALC  =     T  calculate vGv susceptibility
   LVGVAPPL  =     F  apply vGv susceptibility instead of pGv for G=0

 Random number generation:
   RANDOM_GENERATOR = DEFAULT
   PCG_SEED         = not used


--------------------------------------------------------------------------------------------------------


 Static calculation
 charge density and potential will be updated during run
 non-spin polarized calculation
 Conjugate gradient for all bands (Freysoldt, et al. PRB 79, 241103 (2009))
 preconditioned conjugated gradient                                        
 perform sub-space diagonalisation
    before iterative eigenvector-optimisation
 modified Broyden-mixing scheme, WC =      100.0
 initial mixing is a Kerker type mixing with AMIX =  0.4000 and BMIX =      1.0000
 Hartree-type preconditioning will be used
 using additional bands           14
 reciprocal scheme for non local part
 use partial core corrections
 no Harris-corrections to forces 
 use gradient corrections 
 use of overlap-Matrix (Vanderbilt PP)
 Gauss-broadening in eV      SIGMA  =   0.01


--------------------------------------------------------------------------------------------------------


  energy-cutoff  :     1000.00
  volume of cell :    10648.00
      direct lattice vectors                 reciprocal lattice vectors
    22.000000000  0.000000000  0.000000000     0.045454545  0.000000000  0.000000000
     0.000000000 22.000000000  0.000000000     0.000000000  0.045454545  0.000000000
     0.000000000  0.000000000 22.000000000     0.000000000  0.000000000  0.045454545

  length of vectors
    22.000000000 22.000000000 22.000000000     0.045454545  0.045454545  0.045454545



 k-points in units of 2pi/SCALE and weight: auto                                    
   0.00000000  0.00000000  0.00000000       1.000

 k-points in reciprocal lattice and weights: auto                                    
   0.00000000  0.00000000  0.00000000       1.000

 position of ions in fractional coordinates (direct lattice) 
   0.46379659  0.55412318  0.50702682
   0.55341205  0.49410955  0.50407955
   0.57116341  0.42818455  0.49598727
   0.37927295  0.59128773  0.50182182
   0.38096250  0.51305727  0.49121318
   0.56786659  0.51219682  0.54824091
   0.57267205  0.52330409  0.46854227
   0.62072705  0.42373500  0.49843136
   0.55109568  0.39984136  0.53168636
   0.55605250  0.41096955  0.45175909
   0.40165886  0.55142409  0.50568318
   0.49361250  0.60015864  0.51425136
   0.48755114  0.49708091  0.50060227

 position of ions in cartesian coordinates  (Angst):
  10.20352500 12.19071000 11.15459000
  12.17506500 10.87041000 11.08975000
  12.56559500  9.42006000 10.91172000
   8.34400500 13.00833000 11.04008000
   8.38117500 11.28726000 10.80669000
  12.49306500 11.26833000 12.06130000
  12.59878500 11.51269000 10.30793000
  13.65599500  9.32217000 10.96549000
  12.12410500  8.79651000 11.69710000
  12.23315500  9.04133000  9.93870000
   8.83649500 12.13133000 11.12503000
  10.85947500 13.20349000 11.31353000
  10.72612500 10.93578000 11.01325000



--------------------------------------------------------------------------------------------------------


 use parallel FFT for orbitals z direction half grid
 k-point   1 :   0.0000 0.0000 0.0000  plane waves:  381993

 maximum and minimum number of plane-waves per node :     11948    11928

 maximum number of plane-waves:    381993
 maximum index in each direction: 
   IXMAX=   56   IYMAX=   56   IZMAX=   56
   IXMIN=  -56   IYMIN=  -56   IZMIN=    0


 parallel 3D FFT for wavefunctions:
    minimum data exchange during FFTs selected (reduces bandwidth)
 parallel 3D FFT for charge:
    minimum data exchange during FFTs selected (reduces bandwidth)


 total amount of memory used by VASP MPI-rank0   132905. kBytes
=======================================================================

   base      :      30000. kBytes
   nonl-proj :       5538. kBytes
   fftplans  :      24880. kBytes
   grid      :      70194. kBytes
   one-center:          1. kBytes
   wavefun   :       2292. kBytes

     INWAV:  cpu time      0.0001: real time      0.0003
 Broyden mixing: mesh for mixing (old mesh)
   NGX =113   NGY =113   NGZ =113
  (NGX  =480   NGY  =480   NGZ  =480)
  gives a total of ****** points

 initial charge density was supplied:
 charge density of overlapping atoms calculated
 number of electron      36.0000000 magnetization 
 keeping initial charge density in first step


--------------------------------------------------------------------------------------------------------


 Maximum index for augmentation-charges          207 (set IRDMAX)


--------------------------------------------------------------------------------------------------------


 First call to EWALD:  gamma=   0.081
 Maximum number of real-space cells 3x 3x 3
 Maximum number of reciprocal cells 3x 3x 3

    FEWALD:  cpu time      0.0058: real time      0.0058


--------------------------------------- Ionic step        1  -------------------------------------------




--------------------------------------- Iteration      1(   1)  ---------------------------------------


    POTLOK:  cpu time     16.0411: real time     16.0463
    SETDIJ:  cpu time      0.2912: real time      0.2915
    TRIAL :  cpu time      3.9791: real time      3.9831
    CORREC:  cpu time      0.0019: real time      0.0019
    --------------------------------------------
      LOOP:  cpu time     20.3236: real time     20.3333

 eigenvalue-minimisations  :    80
 total energy-change (2. order) : 0.3554020E+03  (-0.9576701E+03)
 number of electron      36.0000000 magnetization 
 augmentation part       36.0000000 magnetization 

 Free energy of the ion-electron system (eV)
  ---------------------------------------------------
  alpha Z        PSCENC =         0.35173684
  Ewald energy   TEWEN  =      2549.12670408
  -Hartree energ DENC   =     -3773.64700077
  -exchange      EXHF   =         0.00000000
  -V(xc)+E(xc)   XCENC  =       135.77936874
  PAW double counting   =      1221.27476502    -1220.71311953
  entropy T*S    EENTRO =        -0.00059413
  eigenvalues    EBANDS =      -214.90703299
  atomic energy  EATOM  =      1658.13713092
  ---------------------------------------------------
  free energy    TOTEN  =       355.40195817 eV

  energy without entropy =      355.40255230  energy(sigma->0) =      355.40225523


--------------------------------------------------------------------------------------------------------




--------------------------------------- Iteration      1(   2)  ---------------------------------------


    TRIAL :  cpu time      4.8859: real time      4.8883
    CORREC:  cpu time      0.0001: real time      0.0001
    --------------------------------------------
      LOOP:  cpu time      4.9011: real time      4.9171

 eigenvalue-minimisations  :   112
 total energy-change (2. order) :-0.2039151E+03  (-0.1997568E+03)
 number of electron      36.0000000 magnetization 
 augmentation part       36.0000000 magnetization 

 Free energy of the ion-electron system (eV)
  ---------------------------------------------------
  alpha Z        PSCENC =         0.35173684
  Ewald energy   TEWEN  =      2549.12670408
  -Hartree energ DENC   =     -3773.64700077
  -exchange      EXHF   =         0.00000000
  -V(xc)+E(xc)   XCENC  =       135.77936874
  PAW double counting   =      1221.27476502    -1220.71311953
  entropy T*S    EENTRO =        -0.00000000
  eigenvalues    EBANDS =      -418.82276385
  atomic energy  EATOM  =      1658.13713092
  ---------------------------------------------------
  free energy    TOTEN  =       151.48682144 eV

  energy without entropy =      151.48682144  energy(sigma->0) =      151.48682144


--------------------------------------------------------------------------------------------------------




--------------------------------------- Iteration      1(   3)  ---------------------------------------


    TRIAL :  cpu time      5.0896: real time      5.0921
    CORREC:  cpu time      0.0001: real time      0.0001
    --------------------------------------------
      LOOP:  cpu time      5.1065: real time      5.1307

 eigenvalue-minimisations  :   120
 total energy-change (2. order) :-0.1838970E+03  (-0.1814767E+03)
 number of electron      36.0000000 magnetization 
 augmentation part       36.0000000 magnetization 

 Free energy of the ion-electron system (eV)
  ---------------------------------------------------
  alpha Z        PSCENC =         0.35173684
  Ewald energy   TEWEN  =      2549.12670408
  -Hartree energ DENC   =     -3773.64700077
  -exchange      EXHF   =         0.00000000
  -V(xc)+E(xc)   XCENC  =       135.77936874
  PAW double counting   =      1221.27476502    -1220.71311953
  entropy T*S    EENTRO =        -0.00000000
  eigenvalues    EBANDS =      -602.71977392
  atomic energy  EATOM  =      1658.13713092
  ---------------------------------------------------
  free energy    TOTEN  =       -32.41018863 eV

  energy without entropy =      -32.41018863  energy(sigma->0) =      -32.41018863


--------------------------------------------------------------------------------------------------------




--------------------------------------- Iteration      1(   4)  ---------------------------------------


    TRIAL :  cpu time      3.9500: real time      3.9517
    CORREC:  cpu time      0.0001: real time      0.0001
    --------------------------------------------
      LOOP:  cpu time      3.9819: real time      3.9838

 eigenvalue-minimisations  :    80
 total energy-change (2. order) :-0.6131135E+02  (-0.6117267E+02)
 number of electron      36.0000000 magnetization 
 augmentation part       36.0000000 magnetization 

 Free energy of the ion-electron system (eV)
  ---------------------------------------------------
  alpha Z        PSCENC =         0.35173684
  Ewald energy   TEWEN  =      2549.12670408
  -Hartree energ DENC   =     -3773.64700077
  -exchange      EXHF   =         0.00000000
  -V(xc)+E(xc)   XCENC  =       135.77936874
  PAW double counting   =      1221.27476502    -1220.71311953
  entropy T*S    EENTRO =        -0.00000000
  eigenvalues    EBANDS =      -664.03112358
  atomic energy  EATOM  =      1658.13713092
  ---------------------------------------------------
  free energy    TOTEN  =       -93.72153830 eV

  energy without entropy =      -93.72153830  energy(sigma->0) =      -93.72153830


--------------------------------------------------------------------------------------------------------




--------------------------------------- Iteration      1(   5)  ---------------------------------------


    TRIAL :  cpu time      3.9504: real time      3.9525
    CORREC:  cpu time      0.0001: real time      0.0001
    CHARGE:  cpu time      0.7064: real time      0.7087
    --------------------------------------------
      LOOP:  cpu time      4.6701: real time      4.6910

 eigenvalue-minimisations  :    80
 total energy-change (2. order) :-0.5752272E+01  (-0.5709906E+01)
 number of electron      36.0000000 magnetization 
 augmentation part        0.1105857 magnetization 

 Free energy of the ion-electron system (eV)
  ---------------------------------------------------
  alpha Z        PSCENC =         0.35173684
  Ewald energy   TEWEN  =      2549.12670408
  -Hartree energ DENC   =     -3773.64700077
  -exchange      EXHF   =         0.00000000
  -V(xc)+E(xc)   XCENC  =       135.77936874
  PAW double counting   =      1221.27476502    -1220.71311953
  entropy T*S    EENTRO =        -0.00000000
  eigenvalues    EBANDS =      -669.78339551
  atomic energy  EATOM  =      1658.13713092
  ---------------------------------------------------
  free energy    TOTEN  =       -99.47381023 eV

  energy without entropy =      -99.47381023  energy(sigma->0) =      -99.47381023


--------------------------------------------------------------------------------------------------------




--------------------------------------- Iteration      1(   6)  ---------------------------------------


    POTLOK:  cpu time     15.9170: real time     15.9214
    SETDIJ:  cpu time      0.3316: real time      0.3316
    TRIAL :  cpu time      3.4268: real time      3.4295
    CORREC:  cpu time     17.8265: real time     17.8316
    CHARGE:  cpu time      0.6662: real time      0.6664
    --------------------------------------------
      LOOP:  cpu time     38.1826: real time     38.2111

 eigenvalue-minimisations  :     0
 total energy-change (2. order) : 0.2508734E+02  (-0.5589162E+01)
 number of electron      36.0000000 magnetization 
 augmentation part        0.0840564 magnetization 

 Free energy of the ion-electron system (eV)
  ---------------------------------------------------
  alpha Z        PSCENC =         0.35173684
  Ewald energy   TEWEN  =      2549.12670408
  -Hartree energ DENC   =     -4055.96003122
  -exchange      EXHF   =         0.00000000
  -V(xc)+E(xc)   XCENC  =       154.83462568
  PAW double counting   =     17459.17074314   -17460.38011849
  entropy T*S    EENTRO =        -0.00000000
  eigenvalues    EBANDS =      -379.66726233
  atomic energy  EATOM  =      1658.13713092
  ---------------------------------------------------
  free energy    TOTEN  =       -74.38647138 eV

  energy without entropy =      -74.38647138  energy(sigma->0) =      -74.38647138


--------------------------------------------------------------------------------------------------------




--------------------------------------- Iteration      1(   7)  ---------------------------------------


    POTLOK:  cpu time     15.9277: real time     15.9317
    SETDIJ:  cpu time      0.3335: real time      0.3336
    TRIAL :  cpu time      3.4103: real time      3.4119
    CORREC:  cpu time     17.7921: real time     17.7972
    CHARGE:  cpu time      0.6662: real time      0.6663
    --------------------------------------------
      LOOP:  cpu time     38.1610: real time     38.1719

 eigenvalue-minimisations  :     0
 total energy-change (2. order) :-0.5620716E+01  (-0.7573011E+00)
 number of electron      36.0000000 magnetization 
 augmentation part        0.0661280 magnetization 

 Free energy of the ion-electron system (eV)
  ---------------------------------------------------
  alpha Z        PSCENC =         0.35173684
  Ewald energy   TEWEN  =      2549.12670408
  -Hartree energ DENC   =     -3938.04621371
  -exchange      EXHF   =         0.00000000
  -V(xc)+E(xc)   XCENC  =       147.93604404
  PAW double counting   =     19808.21485745   -19808.41061727
  entropy T*S    EENTRO =        -0.00000000
  eigenvalues    EBANDS =      -497.31682996
  atomic energy  EATOM  =      1658.13713092
  ---------------------------------------------------
  free energy    TOTEN  =       -80.00718761 eV

  energy without entropy =      -80.00718761  energy(sigma->0) =      -80.00718761


--------------------------------------------------------------------------------------------------------




--------------------------------------- Iteration      1(   8)  ---------------------------------------


    POTLOK:  cpu time     15.9021: real time     15.9061
    SETDIJ:  cpu time      0.3464: real time      0.3466
    TRIAL :  cpu time      3.4089: real time      3.4101
    CORREC:  cpu time     17.7951: real time     17.8007
    CHARGE:  cpu time      0.6663: real time      0.6666
    --------------------------------------------
      LOOP:  cpu time     38.1307: real time     38.1610

 eigenvalue-minimisations  :     0
 total energy-change (2. order) :-0.7627187E+00  (-0.3414016E+00)
 number of electron      36.0000000 magnetization 
 augmentation part        0.0695366 magnetization 

 Free energy of the ion-electron system (eV)
  ---------------------------------------------------
  alpha Z        PSCENC =         0.35173684
  Ewald energy   TEWEN  =      2549.12670408
  -Hartree energ DENC   =     -3941.51265387
  -exchange      EXHF   =         0.00000000
  -V(xc)+E(xc)   XCENC  =       147.91765752
  PAW double counting   =     20502.89681566   -20502.97068124
  entropy T*S    EENTRO =        -0.00000000
  eigenvalues    EBANDS =      -494.71661624
  atomic energy  EATOM  =      1658.13713092
  ---------------------------------------------------
  free energy    TOTEN  =       -80.76990633 eV

  energy without entropy =      -80.76990633  energy(sigma->0) =      -80.76990633


--------------------------------------------------------------------------------------------------------




--------------------------------------- Iteration      1(   9)  ---------------------------------------


    POTLOK:  cpu time     15.9472: real time     15.9520
    SETDIJ:  cpu time      0.2560: real time      0.2560
    TRIAL :  cpu time      3.4151: real time      3.4165
    CORREC:  cpu time     17.6938: real time     17.6993
    CHARGE:  cpu time      0.6661: real time      0.6665
    --------------------------------------------
      LOOP:  cpu time     38.0097: real time     38.0375

 eigenvalue-minimisations  :     0
 total energy-change (2. order) :-0.3402542E+00  (-0.1558000E+00)
 number of electron      36.0000000 magnetization 
 augmentation part        0.0730982 magnetization 

 Free energy of the ion-electron system (eV)
  ---------------------------------------------------
  alpha Z        PSCENC =         0.35173684
  Ewald energy   TEWEN  =      2549.12670408
  -Hartree energ DENC   =     -3941.67882331
  -exchange      EXHF   =         0.00000000
  -V(xc)+E(xc)   XCENC  =       147.81940947
  PAW double counting   =     21624.31204544   -21624.32921230
  entropy T*S    EENTRO =        -0.00000000
  eigenvalues    EBANDS =      -494.84915170
  atomic energy  EATOM  =      1658.13713092
  ---------------------------------------------------
  free energy    TOTEN  =       -81.11016057 eV

  energy without entropy =      -81.11016057  energy(sigma->0) =      -81.11016057


--------------------------------------------------------------------------------------------------------




--------------------------------------- Iteration      1(  10)  ---------------------------------------


    POTLOK:  cpu time     16.0002: real time     16.0044
    SETDIJ:  cpu time      0.1923: real time      0.1923
    TRIAL :  cpu time      3.4080: real time      3.4092
    CORREC:  cpu time     17.7368: real time     17.7419
    CHARGE:  cpu time      0.6675: real time      0.6679
    --------------------------------------------
      LOOP:  cpu time     38.0375: real time     38.0489

 eigenvalue-minimisations  :     0
 total energy-change (2. order) :-0.1541582E+00  (-0.5668868E-01)
 number of electron      36.0000000 magnetization 
 augmentation part        0.0756618 magnetization 

 Free energy of the ion-electron system (eV)
  ---------------------------------------------------
  alpha Z        PSCENC =         0.35173684
  Ewald energy   TEWEN  =      2549.12670408
  -Hartree energ DENC   =     -3937.07008193
  -exchange      EXHF   =         0.00000000
  -V(xc)+E(xc)   XCENC  =       147.67092427
  PAW double counting   =     21890.14895937   -21890.15578008
  entropy T*S    EENTRO =        -0.00000000
  eigenvalues    EBANDS =      -499.47391221
  atomic energy  EATOM  =      1658.13713092
  ---------------------------------------------------
  free energy    TOTEN  =       -81.26431874 eV

  energy without entropy =      -81.26431874  energy(sigma->0) =      -81.26431874


--------------------------------------------------------------------------------------------------------




--------------------------------------- Iteration      1(  11)  ---------------------------------------


    POTLOK:  cpu time     15.9474: real time     15.9533
    SETDIJ:  cpu time      0.2095: real time      0.2095
    TRIAL :  cpu time      3.3982: real time      3.3998
    CORREC:  cpu time     17.7930: real time     17.7993
    CHARGE:  cpu time      0.6651: real time      0.6657
    --------------------------------------------
      LOOP:  cpu time     38.0323: real time     38.0611

 eigenvalue-minimisations  :     0
 total energy-change (2. order) :-0.5637102E-01  (-0.1842689E-01)
 number of electron      36.0000000 magnetization 
 augmentation part        0.0767039 magnetization 

 Free energy of the ion-electron system (eV)
  ---------------------------------------------------
  alpha Z        PSCENC =         0.35173684
  Ewald energy   TEWEN  =      2549.12670408
  -Hartree energ DENC   =     -3934.95605466
  -exchange      EXHF   =         0.00000000
  -V(xc)+E(xc)   XCENC  =       147.63560536
  PAW double counting   =     21627.61233017   -21627.64358019
  entropy T*S    EENTRO =        -0.00000000
  eigenvalues    EBANDS =      -501.58456228
  atomic energy  EATOM  =      1658.13713092
  ---------------------------------------------------
  free energy    TOTEN  =       -81.32068976 eV

  energy without entropy =      -81.32068976  energy(sigma->0) =      -81.32068976


--------------------------------------------------------------------------------------------------------




--------------------------------------- Iteration      1(  12)  ---------------------------------------


    POTLOK:  cpu time     15.8385: real time     15.8436
    SETDIJ:  cpu time      0.4529: real time      0.4529
    TRIAL :  cpu time      3.3999: real time      3.4012
    CORREC:  cpu time     17.8269: real time     17.8326
    CHARGE:  cpu time      0.6656: real time      0.6661
    --------------------------------------------
      LOOP:  cpu time     38.1984: real time     38.2275

 eigenvalue-minimisations  :     0
 total energy-change (2. order) :-0.1838818E-01  (-0.5696910E-02)
 number of electron      36.0000000 magnetization 
 augmentation part        0.0764851 magnetization 

 Free energy of the ion-electron system (eV)
  ---------------------------------------------------
  alpha Z        PSCENC =         0.35173684
  Ewald energy   TEWEN  =      2549.12670408
  -Hartree energ DENC   =     -3934.84848931
  -exchange      EXHF   =         0.00000000
  -V(xc)+E(xc)   XCENC  =       147.62022553
  PAW double counting   =     21422.76182667   -21422.80822928
  entropy T*S    EENTRO =        -0.00000000
  eigenvalues    EBANDS =      -501.67998339
  atomic energy  EATOM  =      1658.13713092
  ---------------------------------------------------
  free energy    TOTEN  =       -81.33907794 eV

  energy without entropy =      -81.33907794  energy(sigma->0) =      -81.33907794


--------------------------------------------------------------------------------------------------------




--------------------------------------- Iteration      1(  13)  ---------------------------------------


    POTLOK:  cpu time     15.9422: real time     15.9462
    SETDIJ:  cpu time      0.3029: real time      0.3030
    TRIAL :  cpu time      3.3960: real time      3.3973
    CORREC:  cpu time     17.7744: real time     17.7792
    CHARGE:  cpu time      0.6651: real time      0.6655
    --------------------------------------------
      LOOP:  cpu time     38.0949: real time     38.1217

 eigenvalue-minimisations  :     0
 total energy-change (2. order) :-0.5701899E-02  (-0.1917811E-02)
 number of electron      36.0000000 magnetization 
 augmentation part        0.0762956 magnetization 

 Free energy of the ion-electron system (eV)
  ---------------------------------------------------
  alpha Z        PSCENC =         0.35173684
  Ewald energy   TEWEN  =      2549.12670408
  -Hartree energ DENC   =     -3934.76868978
  -exchange      EXHF   =         0.00000000
  -V(xc)+E(xc)   XCENC  =       147.60244600
  PAW double counting   =     21306.07461049   -21306.12333888
  entropy T*S    EENTRO =        -0.00000000
  eigenvalues    EBANDS =      -501.74537952
  atomic energy  EATOM  =      1658.13713092
  ---------------------------------------------------
  free energy    TOTEN  =       -81.34477984 eV

  energy without entropy =      -81.34477984  energy(sigma->0) =      -81.34477984


--------------------------------------------------------------------------------------------------------




--------------------------------------- Iteration      1(  14)  ---------------------------------------


    POTLOK:  cpu time     16.0109: real time     16.0150
    SETDIJ:  cpu time      0.2731: real time      0.2731
    TRIAL :  cpu time      3.3898: real time      3.3912
    CORREC:  cpu time     17.8034: real time     17.8082
    CHARGE:  cpu time      0.6649: real time      0.6651
    --------------------------------------------
      LOOP:  cpu time     38.1605: real time     38.1897

 eigenvalue-minimisations  :     0
 total energy-change (2. order) :-0.1920769E-02  (-0.6863596E-03)
 number of electron      36.0000000 magnetization 
 augmentation part        0.0762308 magnetization 

 Free energy of the ion-electron system (eV)
  ---------------------------------------------------
  alpha Z        PSCENC =         0.35173684
  Ewald energy   TEWEN  =      2549.12670408
  -Hartree energ DENC   =     -3934.65836686
  -exchange      EXHF   =         0.00000000
  -V(xc)+E(xc)   XCENC  =       147.59521479
  PAW double counting   =     21224.79052442   -21224.83966747
  entropy T*S    EENTRO =        -0.00000000
  eigenvalues    EBANDS =      -501.84997733
  atomic energy  EATOM  =      1658.13713092
  ---------------------------------------------------
  free energy    TOTEN  =       -81.34670061 eV

  energy without entropy =      -81.34670061  energy(sigma->0) =      -81.34670061


--------------------------------------------------------------------------------------------------------




--------------------------------------- Iteration      1(  15)  ---------------------------------------


    POTLOK:  cpu time     15.9384: real time     15.9429
    SETDIJ:  cpu time      0.7421: real time      0.7424
    TRIAL :  cpu time      3.3938: real time      3.3954
    CORREC:  cpu time     17.7476: real time     17.7529
    CHARGE:  cpu time      0.6647: real time      0.6652
    --------------------------------------------
      LOOP:  cpu time     38.5219: real time     38.5341

 eigenvalue-minimisations  :     0
 total energy-change (2. order) :-0.6880803E-03  (-0.2629946E-03)
 number of electron      36.0000000 magnetization 
 augmentation part        0.0762207 magnetization 

 Free energy of the ion-electron system (eV)
  ---------------------------------------------------
  alpha Z        PSCENC =         0.35173684
  Ewald energy   TEWEN  =      2549.12670408
  -Hartree energ DENC   =     -3934.75479537
  -exchange      EXHF   =         0.00000000
  -V(xc)+E(xc)   XCENC  =       147.59768746
  PAW double counting   =     21166.46389670   -21166.51335365
  entropy T*S    EENTRO =        -0.00000000
  eigenvalues    EBANDS =      -501.75639566
  atomic energy  EATOM  =      1658.13713092
  ---------------------------------------------------
  free energy    TOTEN  =       -81.34738869 eV

  energy without entropy =      -81.34738869  energy(sigma->0) =      -81.34738869


--------------------------------------------------------------------------------------------------------




--------------------------------------- Iteration      1(  16)  ---------------------------------------


    POTLOK:  cpu time     15.9652: real time     15.9695
    SETDIJ:  cpu time      0.1864: real time      0.1864
    TRIAL :  cpu time      3.3970: real time      3.3982
    CORREC:  cpu time     17.8102: real time     17.8159
    CHARGE:  cpu time      0.6654: real time      0.6659
    --------------------------------------------
      LOOP:  cpu time     38.0401: real time     38.0676

 eigenvalue-minimisations  :     0
 total energy-change (2. order) :-0.2657861E-03  (-0.1020927E-03)
 number of electron      36.0000000 magnetization 
 augmentation part        0.0762369 magnetization 

 Free energy of the ion-electron system (eV)
  ---------------------------------------------------
  alpha Z        PSCENC =         0.35173684
  Ewald energy   TEWEN  =      2549.12670408
  -Hartree energ DENC   =     -3934.84579738
  -exchange      EXHF   =         0.00000000
  -V(xc)+E(xc)   XCENC  =       147.60011329
  PAW double counting   =     21126.72760961   -21126.77688033
  entropy T*S    EENTRO =        -0.00000000
  eigenvalues    EBANDS =      -501.66827149
  atomic energy  EATOM  =      1658.13713092
  ---------------------------------------------------
  free energy    TOTEN  =       -81.34765447 eV

  energy without entropy =      -81.34765447  energy(sigma->0) =      -81.34765447


--------------------------------------------------------------------------------------------------------




--------------------------------------- Iteration      1(  17)  ---------------------------------------


    POTLOK:  cpu time     15.9675: real time     15.9715
    SETDIJ:  cpu time      0.2769: real time      0.2769
    TRIAL :  cpu time      3.3953: real time      3.3970
    CORREC:  cpu time     17.8033: real time     17.8080
    CHARGE:  cpu time      0.6645: real time      0.6650
    --------------------------------------------
      LOOP:  cpu time     38.1378: real time     38.1489

 eigenvalue-minimisations  :     0
 total energy-change (2. order) :-0.1034603E-03  (-0.3826862E-04)
 number of electron      36.0000000 magnetization 
 augmentation part        0.0762610 magnetization 

 Free energy of the ion-electron system (eV)
  ---------------------------------------------------
  alpha Z        PSCENC =         0.35173684
  Ewald energy   TEWEN  =      2549.12670408
  -Hartree energ DENC   =     -3934.86507719
  -exchange      EXHF   =         0.00000000
  -V(xc)+E(xc)   XCENC  =       147.60047325
  PAW double counting   =     21106.15262251   -21106.20152034
  entropy T*S    EENTRO =        -0.00000000
  eigenvalues    EBANDS =      -501.64982800
  atomic energy  EATOM  =      1658.13713092
  ---------------------------------------------------
  free energy    TOTEN  =       -81.34775793 eV

  energy without entropy =      -81.34775793  energy(sigma->0) =      -81.34775793


--------------------------------------------------------------------------------------------------------




--------------------------------------- Iteration      1(  18)  ---------------------------------------


    POTLOK:  cpu time     15.9379: real time     15.9418
    SETDIJ:  cpu time      0.3167: real time      0.3168
    TRIAL :  cpu time      3.3991: real time      3.4007
    CORREC:  cpu time     17.8775: real time     17.8825
    CHARGE:  cpu time      0.6646: real time      0.6647
    --------------------------------------------
      LOOP:  cpu time     38.2258: real time     38.2364

 eigenvalue-minimisations  :     0
 total energy-change (2. order) :-0.3813697E-04  (-0.1322027E-04)
 number of electron      36.0000000 magnetization 
 augmentation part        0.0762614 magnetization 

 Free energy of the ion-electron system (eV)
  ---------------------------------------------------
  alpha Z        PSCENC =         0.35173684
  Ewald energy   TEWEN  =      2549.12670408
  -Hartree energ DENC   =     -3934.90045594
  -exchange      EXHF   =         0.00000000
  -V(xc)+E(xc)   XCENC  =       147.60247790
  PAW double counting   =     21103.52818098   -21103.57703911
  entropy T*S    EENTRO =        -0.00000000
  eigenvalues    EBANDS =      -501.61653173
  atomic energy  EATOM  =      1658.13713092
  ---------------------------------------------------
  free energy    TOTEN  =       -81.34779607 eV

  energy without entropy =      -81.34779607  energy(sigma->0) =      -81.34779607


--------------------------------------------------------------------------------------------------------




--------------------------------------- Iteration      1(  19)  ---------------------------------------


    POTLOK:  cpu time     15.9335: real time     15.9384
    SETDIJ:  cpu time      0.2945: real time      0.2945
    TRIAL :  cpu time      3.3957: real time      3.3978
    CORREC:  cpu time     17.8414: real time     17.8471
    CHARGE:  cpu time      0.6649: real time      0.6651
    --------------------------------------------
      LOOP:  cpu time     38.1519: real time     38.1765

 eigenvalue-minimisations  :     0
 total energy-change (2. order) :-0.1318680E-04  (-0.4682971E-05)
 number of electron      36.0000000 magnetization 
 augmentation part        0.0762496 magnetization 

 Free energy of the ion-electron system (eV)
  ---------------------------------------------------
  alpha Z        PSCENC =         0.35173684
  Ewald energy   TEWEN  =      2549.12670408
  -Hartree energ DENC   =     -3934.90790506
  -exchange      EXHF   =         0.00000000
  -V(xc)+E(xc)   XCENC  =       147.60333249
  PAW double counting   =     21111.05642062   -21111.10515804
  entropy T*S    EENTRO =        -0.00000000
  eigenvalues    EBANDS =      -501.61007110
  atomic energy  EATOM  =      1658.13713092
  ---------------------------------------------------
  free energy    TOTEN  =       -81.34780926 eV

  energy without entropy =      -81.34780926  energy(sigma->0) =      -81.34780926


--------------------------------------------------------------------------------------------------------




--------------------------------------- Iteration      1(  20)  ---------------------------------------


    POTLOK:  cpu time     15.9154: real time     15.9199
    SETDIJ:  cpu time      0.3282: real time      0.3284
    TRIAL :  cpu time      3.3972: real time      3.3985
    CORREC:  cpu time     17.7399: real time     17.7456
    CHARGE:  cpu time      0.6649: real time      0.6650
    --------------------------------------------
      LOOP:  cpu time     38.0595: real time     38.1027

 eigenvalue-minimisations  :     0
 total energy-change (2. order) :-0.4732756E-05  (-0.3214997E-05)
 number of electron      36.0000000 magnetization 
 augmentation part        0.0762552 magnetization 

 Free energy of the ion-electron system (eV)
  ---------------------------------------------------
  alpha Z        PSCENC =         0.35173684
  Ewald energy   TEWEN  =      2549.12670408
  -Hartree energ DENC   =     -3934.89801941
  -exchange      EXHF   =         0.00000000
  -V(xc)+E(xc)   XCENC  =       147.60294680
  PAW double counting   =     21119.44138522   -21119.48996761
  entropy T*S    EENTRO =        -0.00000000
  eigenvalues    EBANDS =      -501.61973082
  atomic energy  EATOM  =      1658.13713092
  ---------------------------------------------------
  free energy    TOTEN  =       -81.34781399 eV

  energy without entropy =      -81.34781399  energy(sigma->0) =      -81.34781399


--------------------------------------------------------------------------------------------------------




--------------------------------------- Iteration      1(  21)  ---------------------------------------


    POTLOK:  cpu time     15.9465: real time     15.9502
    SETDIJ:  cpu time      0.3580: real time      0.3582
    TRIAL :  cpu time      3.3921: real time      3.3935
    CORREC:  cpu time     17.6988: real time     17.7045
    CHARGE:  cpu time      0.6656: real time      0.6661
    --------------------------------------------
      LOOP:  cpu time     38.0905: real time     38.1022

 eigenvalue-minimisations  :     0
 total energy-change (2. order) :-0.1853226E-05  (-0.1126110E-05)
 number of electron      36.0000000 magnetization 
 augmentation part        0.0762465 magnetization 

 Free energy of the ion-electron system (eV)
  ---------------------------------------------------
  alpha Z        PSCENC =         0.35173684
  Ewald energy   TEWEN  =      2549.12670408
  -Hartree energ DENC   =     -3934.90954269
  -exchange      EXHF   =         0.00000000
  -V(xc)+E(xc)   XCENC  =       147.60370920
  PAW double counting   =     21129.05678003   -21129.10551670
  entropy T*S    EENTRO =        -0.00000000
  eigenvalues    EBANDS =      -501.60881752
  atomic energy  EATOM  =      1658.13713092
  ---------------------------------------------------
  free energy    TOTEN  =       -81.34781584 eV

  energy without entropy =      -81.34781584  energy(sigma->0) =      -81.34781584


--------------------------------------------------------------------------------------------------------




--------------------------------------- Iteration      1(  22)  ---------------------------------------


    POTLOK:  cpu time     16.1061: real time     16.1108
    SETDIJ:  cpu time      0.0855: real time      0.0856
    TRIAL :  cpu time      3.3928: real time      3.3944
    CORREC:  cpu time     17.8481: real time     17.8536
    CHARGE:  cpu time      0.6665: real time      0.6671
    --------------------------------------------
      LOOP:  cpu time     38.1124: real time     38.1433

 eigenvalue-minimisations  :     0
 total energy-change (2. order) :-0.9958312E-06  (-0.3640676E-06)
 number of electron      36.0000000 magnetization 
 augmentation part        0.0762473 magnetization 

 Free energy of the ion-electron system (eV)
  ---------------------------------------------------
  alpha Z        PSCENC =         0.35173684
  Ewald energy   TEWEN  =      2549.12670408
  -Hartree energ DENC   =     -3934.89625168
  -exchange      EXHF   =         0.00000000
  -V(xc)+E(xc)   XCENC  =       147.60299236
  PAW double counting   =     21128.79403564   -21128.84266260
  entropy T*S    EENTRO =        -0.00000000
  eigenvalues    EBANDS =      -501.62150239
  atomic energy  EATOM  =      1658.13713092
  ---------------------------------------------------
  free energy    TOTEN  =       -81.34781684 eV

  energy without entropy =      -81.34781684  energy(sigma->0) =      -81.34781684


--------------------------------------------------------------------------------------------------------




--------------------------------------- Iteration      1(  23)  ---------------------------------------


    POTLOK:  cpu time     15.8566: real time     15.8606
    SETDIJ:  cpu time      0.4619: real time      0.4619
    TRIAL :  cpu time      3.3933: real time      3.3947
    CORREC:  cpu time     17.8456: real time     17.8512
    CHARGE:  cpu time      0.6681: real time      0.6687
    --------------------------------------------
      LOOP:  cpu time     38.2413: real time     38.2685

 eigenvalue-minimisations  :     0
 total energy-change (2. order) :-0.3612040E-06  ( 0.5247877E-05)
 number of electron      36.0000000 magnetization 
 augmentation part        0.0762487 magnetization 

 Free energy of the ion-electron system (eV)
  ---------------------------------------------------
  alpha Z        PSCENC =         0.35173684
  Ewald energy   TEWEN  =      2549.12670408
  -Hartree energ DENC   =     -3934.89688093
  -exchange      EXHF   =         0.00000000
  -V(xc)+E(xc)   XCENC  =       147.60300966
  PAW double counting   =     21128.12813305   -21128.17678575
  entropy T*S    EENTRO =        -0.00000000
  eigenvalues    EBANDS =      -501.62086507
  atomic energy  EATOM  =      1658.13713092
  ---------------------------------------------------
  free energy    TOTEN  =       -81.34781720 eV

  energy without entropy =      -81.34781720  energy(sigma->0) =      -81.34781720


--------------------------------------------------------------------------------------------------------




--------------------------------------- Iteration      1(  24)  ---------------------------------------


    POTLOK:  cpu time     15.9539: real time     15.9583
    SETDIJ:  cpu time      0.3206: real time      0.3206
    TRIAL :  cpu time      3.4149: real time      3.4167
    CORREC:  cpu time     17.7740: real time     17.7793
    CHARGE:  cpu time      0.6658: real time      0.6660
    --------------------------------------------
      LOOP:  cpu time     38.1413: real time     38.1821

 eigenvalue-minimisations  :     0
 total energy-change (2. order) :-0.1983171E-06  (-0.4864633E-07)
 number of electron      36.0000000 magnetization 
 augmentation part        0.0762477 magnetization 

 Free energy of the ion-electron system (eV)
  ---------------------------------------------------
  alpha Z        PSCENC =         0.35173684
  Ewald energy   TEWEN  =      2549.12670408
  -Hartree energ DENC   =     -3934.89883890
  -exchange      EXHF   =         0.00000000
  -V(xc)+E(xc)   XCENC  =       147.60308348
  PAW double counting   =     21127.62929844   -21127.67798325
  entropy T*S    EENTRO =        -0.00000000
  eigenvalues    EBANDS =      -501.61894901
  atomic energy  EATOM  =      1658.13713092
  ---------------------------------------------------
  free energy    TOTEN  =       -81.34781740 eV

  energy without entropy =      -81.34781740  energy(sigma->0) =      -81.34781740


--------------------------------------------------------------------------------------------------------




--------------------------------------- Iteration      1(  25)  ---------------------------------------


    POTLOK:  cpu time     15.9624: real time     15.9673
    SETDIJ:  cpu time      0.3056: real time      0.3056
    TRIAL :  cpu time      3.3952: real time      3.3970
    CORREC:  cpu time     17.7796: real time     17.7854
    EDDIAG:  cpu time      0.8818: real time      0.8827
    CHARGE:  cpu time      0.6635: real time      0.6636
    --------------------------------------------
      LOOP:  cpu time     39.0033: real time     39.0343

 eigenvalue-minimisations  :     0
 total energy-change (2. order) :-0.4458707E-07  (-0.1053044E-07)
 number of electron      36.0000000 magnetization 
 augmentation part        0.0762470 magnetization 

 Free energy of the ion-electron system (eV)
  ---------------------------------------------------
  alpha Z        PSCENC =         0.35173684
  Ewald energy   TEWEN  =      2549.12670408
  -Hartree energ DENC   =     -3934.89793372
  -exchange      EXHF   =         0.00000000
  -V(xc)+E(xc)   XCENC  =       147.60301193
  PAW double counting   =     21127.40218203   -21127.45086569
  entropy T*S    EENTRO =        -0.00000000
  eigenvalues    EBANDS =      -501.61978382
  atomic energy  EATOM  =      1658.13713092
  ---------------------------------------------------
  free energy    TOTEN  =       -81.34781744 eV

  energy without entropy =      -81.34781744  energy(sigma->0) =      -81.34781744


--------------------------------------------------------------------------------------------------------


  average scaling for gradient   1.0576


 average (electrostatic) potential at core
  the test charge radii are     0.5770  0.4325  0.5902  0.5955
  (the norm of the test charge is              1.0000)
       1 -91.8758       2 -89.5702       3 -88.2020       4 -49.5833       5 -49.6094
       6 -46.8818       7 -46.8816       8 -46.9566       9 -46.7913      10 -46.7975
      11-107.1591      12-122.4597      13-124.2964



 E-fermi :  -6.5155     XC(G=0):  -0.0909     alpha+bet : -0.0715

 Fermi energy:        -6.5154536635

 k-point     1 :       0.0000    0.0000    0.0000
  band No.  band energies     occupation 
      1     -28.8374      2.00000
      2     -26.4758      2.00000
      3     -23.8498      2.00000
      4     -19.8999      2.00000
      5     -16.6894      2.00000
      6     -14.9683      2.00000
      7     -14.0919      2.00000
      8     -12.9712      2.00000
      9     -12.3576      2.00000
     10     -11.2973      2.00000
     11     -10.7522      2.00000
     12     -10.1924      2.00000
     13      -9.8623      2.00000
     14      -9.0898      2.00000
     15      -8.7775      2.00000
     16      -7.2506      2.00000
     17      -6.8748      2.00000
     18      -6.5721      2.00000
     19      -0.1237      0.00000
     20       0.1464      0.00000
     21       0.2766      0.00000
     22       0.3612      0.00000
     23       0.3676      0.00000
     24       0.3840      0.00000
     25       0.3963      0.00000
     26       0.4865      0.00000
     27       0.5738      0.00000
     28       0.6277      0.00000
     29       0.6596      0.00000
     30       0.6620      0.00000
     31       0.6633      0.00000
     32       0.7041      0.00000


--------------------------------------------------------------------------------------------------------


 soft charge-density along one line, spin component           1
         0         1         2         3         4         5         6         7         8         9
 total charge-density along one line

 pseudopotential strength for first ion, spin component:           1
 12.772  21.493  -0.008  -0.000  -0.001  -0.015  -0.000  -0.001
 21.493  36.170  -0.014  -0.000  -0.001  -0.026  -0.000  -0.002
 -0.008  -0.014  -3.299   0.001   0.002  -5.915   0.001   0.003
 -0.000  -0.000   0.001  -3.303   0.001   0.001  -5.922   0.001
 -0.001  -0.001   0.002   0.001  -3.299   0.003   0.001  -5.916
 -0.015  -0.026  -5.915   0.001   0.003 -10.584   0.002   0.004
 -0.000  -0.000   0.001  -5.922   0.001   0.002 -10.594   0.002
 -0.001  -0.002   0.003   0.001  -5.916   0.004   0.002 -10.584
 total augmentation occupancy for first ion, spin component:           1
 10.519  -4.186   1.266   0.257   0.735  -0.560  -0.116  -0.374
 -4.186   1.759  -0.541  -0.121  -0.385   0.249   0.054   0.201
  1.266  -0.541   9.678   0.864   1.433  -3.720  -0.376  -0.607
  0.257  -0.121   0.864   3.568   0.340  -0.376  -1.053  -0.137
  0.735  -0.385   1.433   0.340   8.730  -0.607  -0.137  -3.228
 -0.560   0.249  -3.720  -0.376  -0.607   1.469   0.163   0.262
 -0.116   0.054  -0.376  -1.053  -0.137   0.163   0.315   0.058
 -0.374   0.201  -0.607  -0.137  -3.228   0.262   0.058   1.218


------------------------ aborting loop because EDIFF is reached ----------------------------------------


    FORLOC:  cpu time      0.0495: real time      0.0495
    FORNL :  cpu time      0.0388: real time      0.0388
    FORCOR:  cpu time     16.0424: real time     16.0464
    OFIELD:  cpu time      0.0062: real time      0.0067

 VOLUME and BASIS-vectors are now :
 -----------------------------------------------------------------------------
  energy-cutoff  :     1000.00
  volume of cell :    10648.00
      direct lattice vectors                 reciprocal lattice vectors
    22.000000000  0.000000000  0.000000000     0.045454545  0.000000000  0.000000000
     0.000000000 22.000000000  0.000000000     0.000000000  0.045454545  0.000000000
     0.000000000  0.000000000 22.000000000     0.000000000  0.000000000  0.045454545

  length of vectors
    22.000000000 22.000000000 22.000000000     0.045454545  0.045454545  0.045454545


 FORCES acting on ions:
    Electron-Ion                     Ewald-Force                    Non-Local-Force
 -----------------------------------------------------------------------------------------------
   0.848E+02 -.242E+02 0.253E+01   -.836E+02 0.310E+02 -.217E+01   -.107E+01 -.692E+01 -.338E+00
   -.169E+03 -.765E+00 -.103E+02   0.180E+03 0.133E+01 0.110E+02   -.117E+02 -.574E+00 -.776E+00
   -.925E+02 0.148E+03 0.150E+02   0.921E+02 -.149E+03 -.152E+02   0.351E+00 0.113E+01 0.156E+00
   0.692E+02 -.736E+02 0.691E+01   -.728E+02 0.801E+02 -.744E+01   0.375E+01 -.672E+01 0.555E+00
   0.710E+02 0.639E+02 0.260E+02   -.743E+02 -.701E+02 -.283E+02   0.346E+01 0.643E+01 0.233E+01
   -.484E+02 -.198E+02 -.685E+02   0.500E+02 0.220E+02 0.735E+02   -.174E+01 -.224E+01 -.520E+01
   -.558E+02 -.368E+02 0.542E+02   0.580E+02 0.402E+02 -.582E+02   -.230E+01 -.354E+01 0.415E+01
   -.737E+02 0.241E+02 -.119E+01   0.792E+02 -.247E+02 0.145E+01   -.565E+01 0.585E+00 -.269E+00
   0.983E+01 0.610E+02 -.452E+02   -.121E+02 -.642E+02 0.491E+02   0.231E+01 0.329E+01 -.407E+01
   0.328E+01 0.462E+02 0.610E+02   -.496E+01 -.482E+02 -.658E+02   0.174E+01 0.202E+01 0.506E+01
   0.275E+03 -.228E+02 -.128E+02   -.278E+03 0.212E+02 0.235E+02   0.319E+01 0.158E+01 -.108E+02
   -.142E+03 -.376E+03 -.538E+02   0.172E+03 0.421E+03 0.610E+02   -.297E+02 -.464E+02 -.735E+01
   0.840E+02 0.222E+03 0.360E+02   -.106E+03 -.261E+03 -.425E+02   0.219E+02 0.397E+02 0.654E+01
 -----------------------------------------------------------------------------------------------
   0.155E+02 0.117E+02 0.997E+01   0.000E+00 0.568E-13 -.213E-13   -.155E+02 -.117E+02 -.999E+01


 POSITION                                       TOTAL-FORCE (eV/Angst)
 -----------------------------------------------------------------------------------
     10.20352     12.19071     11.15459         0.243531      0.139630      0.043732
     12.17506     10.87041     11.08975        -0.084123      0.014887      0.005107
     12.56559      9.42006     10.91172        -0.036107      0.050993      0.008095
      8.34401     13.00833     11.04008         0.175663     -0.242399      0.024974
      8.38118     11.28726     10.80669         0.170526      0.242292      0.096179
     12.49307     11.26833     12.06130        -0.091311     -0.079791     -0.201153
     12.59879     11.51269     10.30793        -0.117479     -0.131005      0.162140
     13.65599      9.32217     10.96549        -0.208776      0.038930     -0.006009
     12.12411      8.79651     11.69710         0.078352      0.127609     -0.147678
     12.23315      9.04133      9.93870         0.057111      0.081199      0.189649
      8.83649     12.13133     11.12503         0.251821      0.022754     -0.081171
     10.85947     13.20349     11.31353        -0.502715     -0.836804     -0.157473
     10.72612     10.93578     11.01325         0.063507      0.571704      0.063607
 -----------------------------------------------------------------------------------
    total drift:                                0.030728      0.000160     -0.020066


--------------------------------------------------------------------------------------------------------



  FREE ENERGIE OF THE ION-ELECTRON SYSTEM (eV)
  ---------------------------------------------------
  free  energy   TOTEN  =       -81.34781744 eV

  energy  without entropy=      -81.34781744  energy(sigma->0) =      -81.34781744



--------------------------------------------------------------------------------------------------------


    POTLOK:  cpu time     16.2879: real time     16.2923


--------------------------------------------------------------------------------------------------------


 stress matrix after NEB project (eV)
      0.00000      0.00000      0.00000
      0.00000      0.00000      0.00000
      0.00000      0.00000      0.00000
  FORCES: max atom, RMS     0.988818    0.383316
  FORCE total and by dimension    1.382065    0.836804
  Stress total and by dimension    0.000000    0.000000
     LOOP+:  cpu time    835.1773: real time    835.7716
    4ORBIT:  cpu time      0.0000: real time      0.0000

 total amount of memory used by VASP MPI-rank0   132905. kBytes
=======================================================================

   base      :      30000. kBytes
   nonl-proj :       5538. kBytes
   fftplans  :      24880. kBytes
   grid      :      70194. kBytes
   one-center:          1. kBytes
   wavefun   :       2292. kBytes

  
  
 General timing and accounting informations for this job:
 ========================================================
  
                  Total CPU time used (sec):      864.429
                            User time (sec):      834.132
                          System time (sec):       30.296
                         Elapsed time (sec):      872.599
  
                   Maximum memory used (kb):      544416.
                   Average memory used (kb):          N/A
  
                          Minor page faults:       768925
                          Major page faults:          598
                 Voluntary context switches:         7559
