 vasp.6.4.1 05Apr23 (build Jun  6 2023 14:46:38) gamma-only                      
 executed on        HPECrayEX_GCC date 2024.08.21  17:42:51
 running  512 mpi-ranks, with    1 threads/rank, on    4 nodes
 distrk:  each k-point on  256 cores,    2 groups
 distr:  one band on NCORE=  32 cores,    8 groups


--------------------------------------------------------------------------------------------------------


 INCAR:
   ALGO = Conjugate
   KPAR = 2
   NCORE = 32
   ISMEAR = 0
   SIGMA = 0.01
   PREC = Accurate
   EDIFF = 1E-7
   ENCUT = 1000
   ISIF = 0
   GGA = BO
   PARAM1 = 0.1833333333
   PARAM2 = 0.2200000000
   LUSE_VDW = .TRUE.
   AGGAC = 0.0000
   LASPH = .TRUE.
   SYMPREC = 1E-7
   LWAVE = .FALSE.
   LCHARG = .FALSE.

 POTCAR:    PAW_PBE C_h 06Feb2004                 
 POTCAR:    PAW_PBE H_h 06Feb2004                 
 POTCAR:    PAW_PBE N_h 06Feb2004                 
 POTCAR:    PAW_PBE O_h 06Feb2004                 
 -----------------------------------------------------------------------------
|                                                                             |
|               ----> ADVICE to this user running VASP <----                  |
|                                                                             |
|     You have switched on vdW-DFT.                                           |
|     This routine was written and supplied by Jiri Klimes. We recommend      |
|     that you carefully read and cite the following publications:            |
|       J. Klimes, D.R. Bowler, A. Michelides                                 |
|          J. Phys.: Cond Matt. 22 022201 (2010)                              |
|       J. Klimes, D.R. Bowler, A. Michelides                                 |
|          Phys. Rev. B. 83, 195131 (2011)                                    |
|     and references therein.                                                 |
|                                                                             |
 -----------------------------------------------------------------------------

 POTCAR:    PAW_PBE C_h 06Feb2004                 
   VRHFIN =C: s2p2                                                                                  
   LEXCH  = PE                                                                                      
   EATOM  =   147.1560 eV,   10.8157 Ry                                                             
                                                                                                    
   TITEL  = PAW_PBE C_h 06Feb2004                                                                   
   LULTRA =        F    use ultrasoft PP ?                                                          
   IUNSCR =        1    unscreen: 0-lin 1-nonlin 2-no                                               
   RPACOR =    0.800    partial core radius                                                         
   POMASS =   12.011; ZVAL   =    4.000    mass and valenz                                          
   RCORE  =    1.100    outmost cutoff radius                                                       
   RWIGS  =    1.630; RWIGS  =    0.863    wigner-seitz radius (au A)                               
   ENMAX  =  700.000; ENMIN  =  500.000 eV                                                          
   ICORE  =        2    local potential                                                             
   LCOR   =        T    correct aug charges                                                         
   LPAW   =        T    paw PP                                                                      
   EAUG   =  946.768                                                                                
   DEXC   =    0.000                                                                                
   RMAX   =    1.128    core radius for proj-oper                                                   
   RAUG   =    1.300    factor for augmentation sphere                                              
   RDEP   =    1.162    radius for radial grids                                                     
   RDEPT  =    1.088    core radius for aug-charge                                                  
                                                                                                    
   Atomic configuration                                                                             
    4 entries                                                                                       
     n  l   j            E        occ.                                                              
     1  0  0.50      -273.3789   2.0000                                                             
     2  0  0.50       -13.7508   2.0000                                                             
     2  1  0.50        -5.2854   2.0000                                                             
     3  2  1.50        -5.4423   0.0000                                                             
   Description                                                                                      
     l       E           TYP  RCUT    TYP  RCUT                                                     
     0    -13.7508458     23  1.100                                                                 
     0     -8.2022199     23  1.100                                                                 
     1     -5.2854383     23  1.100                                                                 
     1      1.1560700     23  1.100                                                                 
     2     -5.4423304      7  1.100                                                                 
  local pseudopotential read in
  partial core-charges read in
  partial kinetic energy density read in
  atomic valenz-charges read in
  non local Contribution for L=           0  read in
    real space projection operators read in
  non local Contribution for L=           0  read in
    real space projection operators read in
  non local Contribution for L=           1  read in
    real space projection operators read in
  non local Contribution for L=           1  read in
    real space projection operators read in
    PAW grid and wavefunctions read in

   number of l-projection  operators is LMAX  =           4
   number of lm-projection operators is LMMAX =           8

 POTCAR:    PAW_PBE H_h 06Feb2004                 
   VRHFIN =H: ultrasoft test                                                                        
   LEXCH  = PE                                                                                      
   EATOM  =    12.4884 eV,    0.9179 Ry                                                             
                                                                                                    
   TITEL  = PAW_PBE H_h 06Feb2004                                                                   
   LULTRA =        F    use ultrasoft PP ?                                                          
   IUNSCR =        0    unscreen: 0-lin 1-nonlin 2-no                                               
   RPACOR =    0.000    partial core radius                                                         
   POMASS =    1.000; ZVAL   =    1.000    mass and valenz                                          
   RCORE  =    0.800    outmost cutoff radius                                                       
   RWIGS  =    0.700; RWIGS  =    0.370    wigner-seitz radius (au A)                               
   ENMAX  =  700.000; ENMIN  =  350.000 eV                                                          
   RCLOC  =    0.701    cutoff for local pot                                                        
   LCOR   =        T    correct aug charges                                                         
   LPAW   =        T    paw PP                                                                      
   EAUG   = 1000.000                                                                                
   RMAX   =    0.819    core radius for proj-oper                                                   
   RAUG   =    1.000    factor for augmentation sphere                                              
   RDEP   =    0.817    radius for radial grids                                                     
   RDEPT  =    0.817    core radius for aug-charge                                                  
                                                                                                    
   Atomic configuration                                                                             
    2 entries                                                                                       
     n  l   j            E        occ.                                                              
     1  0  0.50        -6.4927   1.0000                                                             
     2  1  0.50        -3.4015   0.0000                                                             
   Description                                                                                      
     l       E           TYP  RCUT    TYP  RCUT                                                     
     0     -6.4927493     23  0.800                                                                 
     0      6.8029130     23  0.800                                                                 
     1     -6.8029130     23  0.800                                                                 
  local pseudopotential read in
  atomic valenz-charges read in
  non local Contribution for L=           0  read in
    real space projection operators read in
  non local Contribution for L=           0  read in
    real space projection operators read in
  non local Contribution for L=           1  read in
    real space projection operators read in
    PAW grid and wavefunctions read in

   number of l-projection  operators is LMAX  =           3
   number of lm-projection operators is LMMAX =           5

 POTCAR:    PAW_PBE N_h 06Feb2004                 
   VRHFIN =N: s2p3                                                                                  
   LEXCH  = PE                                                                                      
   EATOM  =   264.5486 eV,   19.4438 Ry                                                             
                                                                                                    
   TITEL  = PAW_PBE N_h 06Feb2004                                                                   
   LULTRA =        F    use ultrasoft PP ?                                                          
   IUNSCR =        1    unscreen: 0-lin 1-nonlin 2-no                                               
   RPACOR =    0.800    partial core radius                                                         
   POMASS =   14.001; ZVAL   =    5.000    mass and valenz                                          
   RCORE  =    1.100    outmost cutoff radius                                                       
   RWIGS  =    1.480; RWIGS  =    0.783    wigner-seitz radius (au A)                               
   ENMAX  =  700.000; ENMIN  =  500.000 eV                                                          
   ICORE  =        2    local potential                                                             
   LCOR   =        T    correct aug charges                                                         
   LPAW   =        T    paw PP                                                                      
   EAUG   =  904.640                                                                                
   DEXC   =    0.000                                                                                
   RMAX   =    1.127    core radius for proj-oper                                                   
   RAUG   =    1.300    factor for augmentation sphere                                              
   RDEP   =    1.115    radius for radial grids                                                     
   RDEPT  =    1.106    core radius for aug-charge                                                  
                                                                                                    
   Atomic configuration                                                                             
    4 entries                                                                                       
     n  l   j            E        occ.                                                              
     1  0  0.50      -384.7179   2.0000                                                             
     2  0  0.50       -18.5828   2.0000                                                             
     2  1  0.50        -7.0898   3.0000                                                             
     3  2  1.50        -6.8029   0.0000                                                             
   Description                                                                                      
     l       E           TYP  RCUT    TYP  RCUT                                                     
     0    -18.5828117     23  1.100                                                                 
     0    -15.0750597     23  1.100                                                                 
     1     -7.0897851     23  1.100                                                                 
     1     -1.9663412     23  1.100                                                                 
     2     -6.8029130      7  1.100                                                                 
  local pseudopotential read in
  partial core-charges read in
  partial kinetic energy density read in
  kinetic energy density of atom read in
  atomic valenz-charges read in
  non local Contribution for L=           0  read in
    real space projection operators read in
  non local Contribution for L=           0  read in
    real space projection operators read in
  non local Contribution for L=           1  read in
    real space projection operators read in
  non local Contribution for L=           1  read in
    real space projection operators read in
    PAW grid and wavefunctions read in

   number of l-projection  operators is LMAX  =           4
   number of lm-projection operators is LMMAX =           8

 POTCAR:    PAW_PBE O_h 06Feb2004                 
   VRHFIN =O: s2p4                                                                                  
   LEXCH  = PE                                                                                      
   EATOM  =   432.3788 eV,   31.7789 Ry                                                             
                                                                                                    
   TITEL  = PAW_PBE O_h 06Feb2004                                                                   
   LULTRA =        F    use ultrasoft PP ?                                                          
   IUNSCR =        1    unscreen: 0-lin 1-nonlin 2-no                                               
   RPACOR =    0.800    partial core radius                                                         
   POMASS =   16.000; ZVAL   =    6.000    mass and valenz                                          
   RCORE  =    1.100    outmost cutoff radius                                                       
   RWIGS  =    1.400; RWIGS  =    0.741    wigner-seitz radius (au A)                               
   ENMAX  =  700.000; ENMIN  =  500.000 eV                                                          
   ICORE  =        2    local potential                                                             
   LCOR   =        T    correct aug charges                                                         
   LPAW   =        T    paw PP                                                                      
   EAUG   =  888.804                                                                                
   DEXC   =    0.000                                                                                
   RMAX   =    1.128    core radius for proj-oper                                                   
   RAUG   =    1.300    factor for augmentation sphere                                              
   RDEP   =    1.125    radius for radial grids                                                     
   RDEPT  =    1.088    core radius for aug-charge                                                  
                                                                                                    
   Atomic configuration                                                                             
    4 entries                                                                                       
     n  l   j            E        occ.                                                              
     1  0  0.50      -514.6923   2.0000                                                             
     2  0  0.50       -23.9615   2.0000                                                             
     2  1  0.50        -9.0305   4.0000                                                             
     3  2  1.50        -9.5241   0.0000                                                             
   Description                                                                                      
     l       E           TYP  RCUT    TYP  RCUT                                                     
     0    -23.9615319     23  1.100                                                                 
     0    -25.3221145     23  1.100                                                                 
     1     -9.0304911     23  1.100                                                                 
     1     -5.4802209     23  1.100                                                                 
     2     -9.5240782      7  1.100                                                                 
  local pseudopotential read in
  partial core-charges read in
  partial kinetic energy density read in
  atomic valenz-charges read in
  non local Contribution for L=           0  read in
    real space projection operators read in
  non local Contribution for L=           0  read in
    real space projection operators read in
  non local Contribution for L=           1  read in
    real space projection operators read in
  non local Contribution for L=           1  read in
    real space projection operators read in
    PAW grid and wavefunctions read in

   number of l-projection  operators is LMAX  =           4
   number of lm-projection operators is LMMAX =           8

 -----------------------------------------------------------------------------
|                                                                             |
|               ----> ADVICE to this user running VASP <----                  |
|                                                                             |
|     You enforced a specific xc type in the INCAR file but a different       |
|     type was found in the POTCAR file.                                      |
|     I HOPE YOU KNOW WHAT YOU ARE DOING!                                     |
|                                                                             |
 -----------------------------------------------------------------------------

  PAW_PBE C_h 06Feb2004                 :
 energy of atom  1       EATOM= -147.1560
 kinetic energy error for atom=    0.0031 (will be added to EATOM!!)
  PAW_PBE H_h 06Feb2004                 :
 energy of atom  2       EATOM=  -12.4884
 kinetic energy error for atom=    0.0006 (will be added to EATOM!!)
  PAW_PBE N_h 06Feb2004                 :
 energy of atom  3       EATOM= -264.5486
 kinetic energy error for atom=    0.0081 (will be added to EATOM!!)
  PAW_PBE O_h 06Feb2004                 :
 energy of atom  4       EATOM= -432.3788
 kinetic energy error for atom=    0.0171 (will be added to EATOM!!)


 POSCAR:  C  H  N  O
  positions in cartesian coordinates
  No initial velocities read in
 exchange correlation table for  LEXCH =       42
   RHO(1)=    0.500       N(1)  =     2000
   RHO(2)=  100.500       N(2)  =     4000

 VTST: version 4.1, (05/19/21)

 CHAIN: initializing optimizer
 
 OPT: Using VASP Dynamics algorithm
 CHAIN: Read ICHAIN            0

 POSCAR:  C  H  N  O
  positions in cartesian coordinates
  No initial velocities read in



--------------------------------------------------------------------------------------------------------


 ion  position               nearest neighbor table
   1  0.464  0.554  0.507-  12 1.22  13 1.37  11 1.37
   2  0.553  0.494  0.504-   7 1.10   6 1.10  13 1.45   3 1.51
   3  0.571  0.428  0.496-   9 1.10  10 1.10   8 1.10   2 1.51
   4  0.379  0.591  0.502-  11 1.01
   5  0.381  0.513  0.491-  11 1.01
   6  0.568  0.512  0.548-   2 1.10
   7  0.573  0.523  0.469-   2 1.10
   8  0.621  0.424  0.498-   3 1.10
   9  0.551  0.400  0.532-   3 1.10
  10  0.556  0.411  0.452-   3 1.10
  11  0.402  0.551  0.506-   4 1.01   5 1.01   1 1.37
  12  0.494  0.600  0.514-   1 1.22
  13  0.488  0.497  0.501-   1 1.37   2 1.45

  LATTYP: Found a simple cubic cell.
 ALAT       =    22.0000000000
  
  Lattice vectors:
  
 A1 = (  22.0000000000,   0.0000000000,   0.0000000000)
 A2 = (   0.0000000000,  22.0000000000,   0.0000000000)
 A3 = (   0.0000000000,   0.0000000000,  22.0000000000)


Analysis of symmetry for initial positions (statically):
=====================================================================
 Subroutine PRICEL returns:
 Original cell was already a primitive cell.
 

 Routine SETGRP: Setting up the symmetry group for a 
 simple cubic supercell.


 Subroutine GETGRP returns: Found  1 space group operations
 (whereof  1 operations were pure point group operations)
 out of a pool of 48 trial point group operations.


The static configuration has the point symmetry C_1 .


Analysis of symmetry for dynamics (positions and initial velocities):
=====================================================================
 Subroutine PRICEL returns:
 Original cell was already a primitive cell.
 

 Routine SETGRP: Setting up the symmetry group for a 
 simple cubic supercell.


 Subroutine GETGRP returns: Found  1 space group operations
 (whereof  1 operations were pure point group operations)
 out of a pool of 48 trial point group operations.


The dynamic configuration has the point symmetry C_1 .


 Subroutine INISYM returns: Found  1 space group operations
 (whereof  1 operations are pure point group operations),
 and found     1 'primitive' translations


----------------------------------------------------------------------------------------

                                     Primitive cell                                     

  volume of cell :   10648.0000

  direct lattice vectors                    reciprocal lattice vectors
    22.000000000  0.000000000  0.000000000     0.045454545  0.000000000  0.000000000
     0.000000000 22.000000000  0.000000000     0.000000000  0.045454545  0.000000000
     0.000000000  0.000000000 22.000000000     0.000000000  0.000000000  0.045454545

  length of vectors
    22.000000000 22.000000000 22.000000000     0.045454545  0.045454545  0.045454545

  position of ions in fractional coordinates (direct lattice)
     0.463796591  0.554123182  0.507026818
     0.553412045  0.494109545  0.504079545
     0.571163409  0.428184545  0.495987273
     0.379272955  0.591287727  0.501821818
     0.380962500  0.513057273  0.491213182
     0.567866591  0.512196818  0.548240909
     0.572672045  0.523304091  0.468542273
     0.620727045  0.423735000  0.498431364
     0.551095682  0.399841364  0.531686364
     0.556052500  0.410969545  0.451759091
     0.401658864  0.551424091  0.505683182
     0.493612500  0.600158636  0.514251364
     0.487551136  0.497080909  0.500602273

  ion indices of the primitive-cell ions
   primitive index   ion index
                 1           1
                 2           2
                 3           3
                 4           4
                 5           5
                 6           6
                 7           7
                 8           8
                 9           9
                10          10
                11          11
                12          12
                13          13

----------------------------------------------------------------------------------------



 KPOINTS: auto                                    

Automatic generation of k-mesh.
 Grid dimensions read from file:
 generate k-points for:    1    1    1

 Generating k-lattice:

  Cartesian coordinates                     Fractional coordinates (reciprocal lattice)
     0.045454545  0.000000000  0.000000000     1.000000000  0.000000000  0.000000000
     0.000000000  0.045454545  0.000000000     0.000000000  1.000000000  0.000000000
     0.000000000  0.000000000  0.045454545     0.000000000  0.000000000  1.000000000

  Length of vectors
     0.045454545  0.045454545  0.045454545

  Shift w.r.t. Gamma in fractional coordinates (k-lattice)
     0.000000000  0.000000000  0.000000000

 
 Subroutine IBZKPT returns following result:
 ===========================================
 
 Found      1 irreducible k-points:
 
 Following reciprocal coordinates:
            Coordinates               Weight
  0.000000  0.000000  0.000000      1.000000
 
 Following cartesian coordinates:
            Coordinates               Weight
  0.000000  0.000000  0.000000      1.000000
 


--------------------------------------------------------------------------------------------------------




 Dimension of arrays:
   k-points           NKPTS =      1   k-points in BZ     NKDIM =      1   number of bands    NBANDS=     32
   number of dos      NEDOS =    301   number of ions     NIONS =     13
   non local maximal  LDIM  =      4   non local SUM 2l+1 LMDIM =      8
   total plane-waves  NPLWV = ******
   max r-space proj   IRMAX =      1   max aug-charges    IRDMAX=   9667
   dimension x,y,z NGX =   240 NGY =  240 NGZ =  240
   dimension x,y,z NGXF=   480 NGYF=  480 NGZF=  480
   support grid    NGXF=   480 NGYF=  480 NGZF=  480
   ions per type =               3   7   1   2
   NGX,Y,Z   is equivalent  to a cutoff of  18.14, 18.14, 18.14 a.u.
   NGXF,Y,Z  is equivalent  to a cutoff of  36.27, 36.27, 36.27 a.u.

 SYSTEM =  unknown system                          
 POSCAR =   C  H  N  O                             

 Startparameter for this run:
   NWRITE =      2    write-flag & timer
   PREC   = accura    normal or accurate (medium, high low for compatibility)
   ISTART =      0    job   : 0-new  1-cont  2-samecut
   ICHARG =      2    charge: 1-file 2-atom 10-const
   ISPIN  =      1    spin polarized calculation?
   LNONCOLLINEAR =      F non collinear calculations
   LSORBIT =      F    spin-orbit coupling
   INIWAV =      1    electr: 0-lowe 1-rand  2-diag
   LASPH  =      T    aspherical Exc in radial PAW
 Electronic Relaxation 1
   ENCUT  = 1000.0 eV  73.50 Ry    8.57 a.u.  56.73 56.73 56.73*2*pi/ulx,y,z
   ENINI  = 1000.0     initial cutoff
   ENAUG  = 1000.0 eV  augmentation charge cutoff
   NELM   =     60;   NELMIN=  2; NELMDL=  0     # of ELM steps 
   EDIFF  = 0.1E-06   stopping-criterion for ELM
   LREAL  =      F    real-space projection
   NLSPLINE    = F    spline interpolate recip. space projectors
   LCOMPAT=      F    compatible to vasp.4.4
   GGA_COMPAT  = T    GGA compatible to vasp.4.4-vasp.4.6
   LMAXPAW     = -100 max onsite density
   LMAXMIX     =    2 max onsite mixed and CHGCAR
   VOSKOWN=      0    Vosko Wilk Nusair interpolation
   ROPT   =    0.00000   0.00000   0.00000   0.00000
 Ionic relaxation
   EDIFFG = 0.1E-05   stopping-criterion for IOM
   NSW    =      0    number of steps for IOM
   NBLOCK =      1;   KBLOCK =      1    inner block; outer block 
   IBRION =     -1    ionic relax: 0-MD 1-quasi-New 2-CG
   NFREE  =      0    steps in history (QN), initial steepest desc. (CG)
   ISIF   =      0    stress and relaxation
   IWAVPR =     10    prediction:  0-non 1-charg 2-wave 3-comb
   ISYM   =      2    0-nonsym 1-usesym 2-fastsym
   LCORR  =      T    Harris-Foulkes like correction to forces

   POTIM  = 0.5000    time-step for ionic-motion
   TEIN   =    0.0    initial temperature
   TEBEG  =    0.0;   TEEND  =   0.0 temperature during run
   SMASS  =  -3.00    Nose mass-parameter (am)
   estimated Nose-frequenzy (Omega)   =  0.10E-29 period in steps = 0.13E+47 mass=  -0.111E-25a.u.
   SCALEE = 1.0000    scale energy and forces
   NPACO  =    256;   APACO  = 10.0  distance and # of slots for P.C.
   PSTRESS=    0.0 pullay stress

  Mass of Ions in am
   POMASS =  12.01  1.00 14.00 16.00
  Ionic Valenz
   ZVAL   =   4.00  1.00  5.00  6.00
  Atomic Wigner-Seitz radii
   RWIGS  =  -1.00 -1.00 -1.00 -1.00
  virtual crystal weights 
   VCA    =   1.00  1.00  1.00  1.00
   NELECT =      36.0000    total number of electrons
   NUPDOWN=      -1.0000    fix difference up-down

 DOS related values:
   EMIN   =  10.00;   EMAX   =-10.00  energy-range for DOS
   EFERMI =   0.00;   METHOD = LEGACY      
   ISMEAR =     0;   SIGMA  =   0.01  broadening in eV -4-tet -1-fermi 0-gaus

 Electronic relaxation 2 (details)
   IALGO  =     58    algorithm
   LDIAG  =      T    sub-space diagonalisation (order eigenvalues)
   LSUBROT=      F    optimize rotation matrix (better conditioning)
   TURBO    =      0    0=normal 1=particle mesh
   IRESTART =      0    0=no restart 2=restart with 2 vectors
   NREBOOT  =      0    no. of reboots
   NMIN     =      0    reboot dimension
   EREF     =   0.00    reference energy to select bands
   IMIX   =      4    mixing-type and parameters
     AMIX     =   0.40;   BMIX     =  1.00
     AMIX_MAG =   1.60;   BMIX_MAG =  1.00
     AMIN     =   0.10
     WC   =   100.;   INIMIX=   1;  MIXPRE=   1;  MAXMIX= -45

 Intra band minimization:
   WEIMIN = 0.0000     energy-eigenvalue tresh-hold
   EBREAK =  0.78E-09  absolut break condition
   DEPER  =   0.30     relativ break condition  

   TIME   =   0.40     timestep for ELM

  volume/ion in A,a.u.               =     819.08      5527.40
  Fermi-wavevector in a.u.,A,eV,Ry     =   0.245708  0.464321  0.821418  0.060373
  Thomas-Fermi vector in A             =   1.056973

 Write flags
   LWAVE        =      F    write WAVECAR
   LDOWNSAMPLE  =      F    k-point downsampling of WAVECAR
   LCHARG       =      F    write CHGCAR
   LVTOT        =      F    write LOCPOT, total local potential
   LVHAR        =      F    write LOCPOT, Hartree potential only
   LELF         =      F    write electronic localiz. function (ELF)
   LORBIT       =      0    0 simple, 1 ext, 2 COOP (PROOUT), +10 PAW based schemes


 Dipole corrections
   LMONO  =      F    monopole corrections only (constant potential shift)
   LDIPOL =      F    correct potential (dipole corrections)
   IDIPOL =      0    1-x, 2-y, 3-z, 4-all directions 
   EPSILON=  1.0000000 bulk dielectric constant

 Exchange correlation treatment:
   GGA     =    BO    GGA type
   LEXCH   =    42    internal setting for exchange type
   LIBXC   =     F    Libxc                    
   VOSKOWN =     0    Vosko Wilk Nusair interpolation
   LHFCALC =     F    Hartree Fock is set to
   LHFONE  =     F    Hartree Fock one center treatment
   AEXX    =    0.0000 exact exchange contribution

 vdW DFT:
   LUSE_VDW   =     T    switch on vdW DFT
   IVDW_NL    =     1    kernel type
   LSPIN_VDW  =     F    use spin-polarized vdW DFT
   Zab_VDW    =-.8491    correlation parameter
   PARAM1     =0.1833
   PARAM2     =0.2200
   PARAM3     =0.0000
   -- rVV10 --
   BPARAM     = 6.3000
   CPARAM     = 0.0093

 Linear response parameters
   LEPSILON=     F    determine dielectric tensor
   LRPA    =     F    only Hartree local field effects (RPA)
   LNABLA  =     F    use nabla operator in PAW spheres
   LVEL    =     F    velocity operator in full k-point grid
   CSHIFT  =0.1000    complex shift for real part using Kramers Kronig
   OMEGAMAX=  -1.0    maximum frequency
   DEG_THRESHOLD= 0.2000000E-02 threshold for treating states as degnerate
   RTIME   =   -0.100 relaxation time in fs
  (WPLASMAI=    0.000 imaginary part of plasma frequency in eV, 0.658/RTIME)
   DFIELD  = 0.0000000 0.0000000 0.0000000 field for delta impulse in time

  Optional k-point grid parameters
   LKPOINTS_OPT  =     F    use optional k-point grid
   KPOINTS_OPT_MODE=     1    mode for optional k-point grid

 Orbital magnetization related:
   ORBITALMAG=     F  switch on orbital magnetization
   LCHIMAG   =     F  perturbation theory with respect to B field
   DQ        =  0.001000  dq finite difference perturbation B field
   LLRAUG    =     F  two centre corrections for induced B field
   LBONE     =     F  B-component reconstruction in AE one-centre
   LVGVCALC  =     T  calculate vGv susceptibility
   LVGVAPPL  =     F  apply vGv susceptibility instead of pGv for G=0

 Random number generation:
   RANDOM_GENERATOR = DEFAULT
   PCG_SEED         = not used


--------------------------------------------------------------------------------------------------------


 Static calculation
 charge density and potential will be updated during run
 non-spin polarized calculation
 Conjugate gradient for all bands (Freysoldt, et al. PRB 79, 241103 (2009))
 preconditioned conjugated gradient                                        
 perform sub-space diagonalisation
    before iterative eigenvector-optimisation
 modified Broyden-mixing scheme, WC =      100.0
 initial mixing is a Kerker type mixing with AMIX =  0.4000 and BMIX =      1.0000
 Hartree-type preconditioning will be used
 using additional bands           14
 reciprocal scheme for non local part
 use partial core corrections
 no Harris-corrections to forces 
 use gradient corrections 
 use of overlap-Matrix (Vanderbilt PP)
 Gauss-broadening in eV      SIGMA  =   0.01


--------------------------------------------------------------------------------------------------------


  energy-cutoff  :     1000.00
  volume of cell :    10648.00
      direct lattice vectors                 reciprocal lattice vectors
    22.000000000  0.000000000  0.000000000     0.045454545  0.000000000  0.000000000
     0.000000000 22.000000000  0.000000000     0.000000000  0.045454545  0.000000000
     0.000000000  0.000000000 22.000000000     0.000000000  0.000000000  0.045454545

  length of vectors
    22.000000000 22.000000000 22.000000000     0.045454545  0.045454545  0.045454545



 k-points in units of 2pi/SCALE and weight: auto                                    
   0.00000000  0.00000000  0.00000000       1.000

 k-points in reciprocal lattice and weights: auto                                    
   0.00000000  0.00000000  0.00000000       1.000

 position of ions in fractional coordinates (direct lattice) 
   0.46379659  0.55412318  0.50702682
   0.55341205  0.49410955  0.50407955
   0.57116341  0.42818455  0.49598727
   0.37927295  0.59128773  0.50182182
   0.38096250  0.51305727  0.49121318
   0.56786659  0.51219682  0.54824091
   0.57267205  0.52330409  0.46854227
   0.62072705  0.42373500  0.49843136
   0.55109568  0.39984136  0.53168636
   0.55605250  0.41096955  0.45175909
   0.40165886  0.55142409  0.50568318
   0.49361250  0.60015864  0.51425136
   0.48755114  0.49708091  0.50060227

 position of ions in cartesian coordinates  (Angst):
  10.20352500 12.19071000 11.15459000
  12.17506500 10.87041000 11.08975000
  12.56559500  9.42006000 10.91172000
   8.34400500 13.00833000 11.04008000
   8.38117500 11.28726000 10.80669000
  12.49306500 11.26833000 12.06130000
  12.59878500 11.51269000 10.30793000
  13.65599500  9.32217000 10.96549000
  12.12410500  8.79651000 11.69710000
  12.23315500  9.04133000  9.93870000
   8.83649500 12.13133000 11.12503000
  10.85947500 13.20349000 11.31353000
  10.72612500 10.93578000 11.01325000



--------------------------------------------------------------------------------------------------------


 use parallel FFT for orbitals z direction half grid
 k-point   1 :   0.0000 0.0000 0.0000  plane waves:  381993

 maximum and minimum number of plane-waves per node :     11948    11928

 maximum number of plane-waves:    381993
 maximum index in each direction: 
   IXMAX=   56   IYMAX=   56   IZMAX=   56
   IXMIN=  -56   IYMIN=  -56   IZMIN=    0


 parallel 3D FFT for wavefunctions:
    minimum data exchange during FFTs selected (reduces bandwidth)
 parallel 3D FFT for charge:
    minimum data exchange during FFTs selected (reduces bandwidth)


 total amount of memory used by VASP MPI-rank0   114458. kBytes
=======================================================================

   base      :      30000. kBytes
   nonl-proj :       5538. kBytes
   fftplans  :      24880. kBytes
   grid      :      51747. kBytes
   one-center:          1. kBytes
   wavefun   :       2292. kBytes

     INWAV:  cpu time      0.0001: real time      0.0003
 Broyden mixing: mesh for mixing (old mesh)
   NGX =113   NGY =113   NGZ =113
  (NGX  =480   NGY  =480   NGZ  =480)
  gives a total of ****** points

 initial charge density was supplied:
 charge density of overlapping atoms calculated
 number of electron      36.0000000 magnetization 
 charge density for first step will be calculated from the start-wavefunctions


--------------------------------------------------------------------------------------------------------


 Maximum index for augmentation-charges          207 (set IRDMAX)


--------------------------------------------------------------------------------------------------------


 First call to EWALD:  gamma=   0.081
 Maximum number of real-space cells 3x 3x 3
 Maximum number of reciprocal cells 3x 3x 3

    FEWALD:  cpu time      0.0043: real time      0.0045


--------------------------------------- Ionic step        1  -------------------------------------------




--------------------------------------- Iteration      1(   1)  ---------------------------------------


vdW kernel read from vdw_kernel.bindat
  0.0000  0.2424  0.5071  0.7962  1.1119  1.4567  1.8333  2.2446  2.6937  3.1842
  3.7199  4.3049  4.9438  5.6415  6.4036  7.2358  8.1446  9.1372 10.2212 11.4050
 12.6979 14.1099 15.6519 17.3360 19.1751 21.1837 23.3773 25.7729 28.3892 31.2465
 34.3669 37.7748 41.4965 45.5611 50.0000

    POTLOK:  cpu time     21.7539: real time     21.7695
    SETDIJ:  cpu time      0.0081: real time      0.0088
    TRIAL :  cpu time      0.9039: real time      0.9055
    CORREC:  cpu time      0.0016: real time      0.0016
    --------------------------------------------
      LOOP:  cpu time     22.6780: real time     22.6961

 eigenvalue-minimisations  :    80
 total energy-change (2. order) : 0.3657763E+03  (-0.9457811E+03)
 number of electron      36.0000000 magnetization 
 augmentation part       36.0000000 magnetization 

 Free energy of the ion-electron system (eV)
  ---------------------------------------------------
  alpha Z        PSCENC =         0.35173684
  Ewald energy   TEWEN  =      2549.12670408
  -Hartree energ DENC   =     -3773.64700077
  -exchange      EXHF   =         0.00000000
  -V(xc)+E(xc)   XCENC  =       104.77837253
  PAW double counting   =      1253.27409543    -1235.09911200
  entropy T*S    EENTRO =        -0.00000651
  eigenvalues    EBANDS =      -206.10121667
  atomic energy  EATOM  =      1673.09273621
  ---------------------------------------------------
  free energy    TOTEN  =       365.77630913 eV

  energy without entropy =      365.77631564  energy(sigma->0) =      365.77631238


--------------------------------------------------------------------------------------------------------




--------------------------------------- Iteration      1(   2)  ---------------------------------------


    TRIAL :  cpu time      1.1156: real time      1.1161
    CORREC:  cpu time      0.0004: real time      0.0004
    --------------------------------------------
      LOOP:  cpu time      1.1298: real time      1.1490

 eigenvalue-minimisations  :   112
 total energy-change (2. order) :-0.1922237E+03  (-0.1892139E+03)
 number of electron      36.0000000 magnetization 
 augmentation part       36.0000000 magnetization 

 Free energy of the ion-electron system (eV)
  ---------------------------------------------------
  alpha Z        PSCENC =         0.35173684
  Ewald energy   TEWEN  =      2549.12670408
  -Hartree energ DENC   =     -3773.64700077
  -exchange      EXHF   =         0.00000000
  -V(xc)+E(xc)   XCENC  =       104.77837253
  PAW double counting   =      1253.27409543    -1235.09911200
  entropy T*S    EENTRO =        -0.00000131
  eigenvalues    EBANDS =      -398.32487307
  atomic energy  EATOM  =      1673.09273621
  ---------------------------------------------------
  free energy    TOTEN  =       173.55265793 eV

  energy without entropy =      173.55265924  energy(sigma->0) =      173.55265859


--------------------------------------------------------------------------------------------------------




--------------------------------------- Iteration      1(   3)  ---------------------------------------


    TRIAL :  cpu time      1.1762: real time      1.1768
    CORREC:  cpu time      0.0001: real time      0.0001
    --------------------------------------------
      LOOP:  cpu time      1.1988: real time      1.2074

 eigenvalue-minimisations  :   120
 total energy-change (2. order) :-0.1777084E+03  (-0.1742947E+03)
 number of electron      36.0000000 magnetization 
 augmentation part       36.0000000 magnetization 

 Free energy of the ion-electron system (eV)
  ---------------------------------------------------
  alpha Z        PSCENC =         0.35173684
  Ewald energy   TEWEN  =      2549.12670408
  -Hartree energ DENC   =     -3773.64700077
  -exchange      EXHF   =         0.00000000
  -V(xc)+E(xc)   XCENC  =       104.77837253
  PAW double counting   =      1253.27409543    -1235.09911200
  entropy T*S    EENTRO =        -0.00000000
  eigenvalues    EBANDS =      -576.03322837
  atomic energy  EATOM  =      1673.09273621
  ---------------------------------------------------
  free energy    TOTEN  =        -4.15569605 eV

  energy without entropy =       -4.15569605  energy(sigma->0) =       -4.15569605


--------------------------------------------------------------------------------------------------------




--------------------------------------- Iteration      1(   4)  ---------------------------------------


    TRIAL :  cpu time      0.8691: real time      0.8696
    CORREC:  cpu time      0.0002: real time      0.0002
    --------------------------------------------
      LOOP:  cpu time      0.8998: real time      0.9006

 eigenvalue-minimisations  :    80
 total energy-change (2. order) :-0.6431164E+02  (-0.6416813E+02)
 number of electron      36.0000000 magnetization 
 augmentation part       36.0000000 magnetization 

 Free energy of the ion-electron system (eV)
  ---------------------------------------------------
  alpha Z        PSCENC =         0.35173684
  Ewald energy   TEWEN  =      2549.12670408
  -Hartree energ DENC   =     -3773.64700077
  -exchange      EXHF   =         0.00000000
  -V(xc)+E(xc)   XCENC  =       104.77837253
  PAW double counting   =      1253.27409543    -1235.09911200
  entropy T*S    EENTRO =        -0.00000000
  eigenvalues    EBANDS =      -640.34486438
  atomic energy  EATOM  =      1673.09273621
  ---------------------------------------------------
  free energy    TOTEN  =       -68.46733206 eV

  energy without entropy =      -68.46733206  energy(sigma->0) =      -68.46733206


--------------------------------------------------------------------------------------------------------




--------------------------------------- Iteration      1(   5)  ---------------------------------------


    TRIAL :  cpu time      0.8681: real time      0.8686
    CORREC:  cpu time      0.0002: real time      0.0002
    CHARGE:  cpu time      0.2397: real time      0.2409
    --------------------------------------------
      LOOP:  cpu time      1.1219: real time      1.1393

 eigenvalue-minimisations  :    80
 total energy-change (2. order) :-0.6018860E+01  (-0.5974235E+01)
 number of electron      36.0000000 magnetization 
 augmentation part        0.1851512 magnetization 

 Free energy of the ion-electron system (eV)
  ---------------------------------------------------
  alpha Z        PSCENC =         0.35173684
  Ewald energy   TEWEN  =      2549.12670408
  -Hartree energ DENC   =     -3773.64700077
  -exchange      EXHF   =         0.00000000
  -V(xc)+E(xc)   XCENC  =       104.77837253
  PAW double counting   =      1253.27409543    -1235.09911200
  entropy T*S    EENTRO =        -0.00000000
  eigenvalues    EBANDS =      -646.36372424
  atomic energy  EATOM  =      1673.09273621
  ---------------------------------------------------
  free energy    TOTEN  =       -74.48619192 eV

  energy without entropy =      -74.48619192  energy(sigma->0) =      -74.48619192


--------------------------------------------------------------------------------------------------------




--------------------------------------- Iteration      1(   6)  ---------------------------------------


    POTLOK:  cpu time     21.1789: real time     21.1856
    SETDIJ:  cpu time      0.0008: real time      0.0008
    TRIAL :  cpu time      0.5272: real time      0.5281
    CORREC:  cpu time     21.5963: real time     21.6038
    CHARGE:  cpu time      0.1996: real time      0.1998
    --------------------------------------------
      LOOP:  cpu time     43.5187: real time     43.5643

 eigenvalue-minimisations  :     0
 total energy-change (2. order) : 0.1677844E+02  (-0.7344021E+01)
 number of electron      36.0000000 magnetization 
 augmentation part        0.1353215 magnetization 

 Free energy of the ion-electron system (eV)
  ---------------------------------------------------
  alpha Z        PSCENC =         0.35173684
  Ewald energy   TEWEN  =      2549.12670408
  -Hartree energ DENC   =     -4074.37724536
  -exchange      EXHF   =         0.00000000
  -V(xc)+E(xc)   XCENC  =       118.74193199
  PAW double counting   =     11421.24109086   -11405.41047017
  entropy T*S    EENTRO =        -0.00000000
  eigenvalues    EBANDS =      -340.47423417
  atomic energy  EATOM  =      1673.09273621
  ---------------------------------------------------
  free energy    TOTEN  =       -57.70774973 eV

  energy without entropy =      -57.70774973  energy(sigma->0) =      -57.70774973


--------------------------------------------------------------------------------------------------------




--------------------------------------- Iteration      1(   7)  ---------------------------------------


    POTLOK:  cpu time     21.2165: real time     21.2229
    SETDIJ:  cpu time      0.0160: real time      0.0160
    TRIAL :  cpu time      0.5136: real time      0.5140
    CORREC:  cpu time     21.5935: real time     21.6003
    CHARGE:  cpu time      0.1998: real time      0.2001
    --------------------------------------------
      LOOP:  cpu time     43.5723: real time     43.5865

 eigenvalue-minimisations  :     0
 total energy-change (2. order) :-0.7421729E+01  (-0.8712775E+00)
 number of electron      36.0000000 magnetization 
 augmentation part        0.1071642 magnetization 

 Free energy of the ion-electron system (eV)
  ---------------------------------------------------
  alpha Z        PSCENC =         0.35173684
  Ewald energy   TEWEN  =      2549.12670408
  -Hartree energ DENC   =     -3931.68325708
  -exchange      EXHF   =         0.00000000
  -V(xc)+E(xc)   XCENC  =       112.42913366
  PAW double counting   =     14135.81991850   -14118.84155150
  entropy T*S    EENTRO =        -0.00000000
  eigenvalues    EBANDS =      -485.42489912
  atomic energy  EATOM  =      1673.09273621
  ---------------------------------------------------
  free energy    TOTEN  =       -65.12947841 eV

  energy without entropy =      -65.12947841  energy(sigma->0) =      -65.12947841


--------------------------------------------------------------------------------------------------------




--------------------------------------- Iteration      1(   8)  ---------------------------------------


    POTLOK:  cpu time     21.2073: real time     21.2134
    SETDIJ:  cpu time      0.0102: real time      0.0102
    TRIAL :  cpu time      0.5173: real time      0.5173
    CORREC:  cpu time     21.6611: real time     21.6684
    CHARGE:  cpu time      0.2020: real time      0.2021
    --------------------------------------------
      LOOP:  cpu time     43.6119: real time     43.6422

 eigenvalue-minimisations  :     0
 total energy-change (2. order) :-0.8762050E+00  (-0.3676214E+00)
 number of electron      36.0000000 magnetization 
 augmentation part        0.1004077 magnetization 

 Free energy of the ion-electron system (eV)
  ---------------------------------------------------
  alpha Z        PSCENC =         0.35173684
  Ewald energy   TEWEN  =      2549.12670408
  -Hartree energ DENC   =     -3938.58321350
  -exchange      EXHF   =         0.00000000
  -V(xc)+E(xc)   XCENC  =       112.55441480
  PAW double counting   =     14367.94109454   -14350.82574170
  entropy T*S    EENTRO =        -0.00000000
  eigenvalues    EBANDS =      -479.66341468
  atomic energy  EATOM  =      1673.09273621
  ---------------------------------------------------
  free energy    TOTEN  =       -66.00568341 eV

  energy without entropy =      -66.00568341  energy(sigma->0) =      -66.00568341


--------------------------------------------------------------------------------------------------------




--------------------------------------- Iteration      1(   9)  ---------------------------------------


    POTLOK:  cpu time     21.1663: real time     21.1721
    SETDIJ:  cpu time      0.0463: real time      0.0464
    TRIAL :  cpu time      0.5156: real time      0.5161
    CORREC:  cpu time     21.5636: real time     21.5701
    CHARGE:  cpu time      0.2003: real time      0.2004
    --------------------------------------------
      LOOP:  cpu time     43.5081: real time     43.5443

 eigenvalue-minimisations  :     0
 total energy-change (2. order) :-0.3656239E+00  (-0.1659737E+00)
 number of electron      36.0000000 magnetization 
 augmentation part        0.1004144 magnetization 

 Free energy of the ion-electron system (eV)
  ---------------------------------------------------
  alpha Z        PSCENC =         0.35173684
  Ewald energy   TEWEN  =      2549.12670408
  -Hartree energ DENC   =     -3939.00177208
  -exchange      EXHF   =         0.00000000
  -V(xc)+E(xc)   XCENC  =       112.47870478
  PAW double counting   =     14753.47994297   -14736.27746022
  entropy T*S    EENTRO =        -0.00000000
  eigenvalues    EBANDS =      -479.62189988
  atomic energy  EATOM  =      1673.09273621
  ---------------------------------------------------
  free energy    TOTEN  =       -66.37130730 eV

  energy without entropy =      -66.37130730  energy(sigma->0) =      -66.37130730


--------------------------------------------------------------------------------------------------------




--------------------------------------- Iteration      1(  10)  ---------------------------------------


    POTLOK:  cpu time     21.2036: real time     21.2096
    SETDIJ:  cpu time      0.0690: real time      0.0690
    TRIAL :  cpu time      0.5136: real time      0.5140
    CORREC:  cpu time     21.6197: real time     21.6263
    CHARGE:  cpu time      0.2008: real time      0.2009
    --------------------------------------------
      LOOP:  cpu time     43.6193: real time     43.6496

 eigenvalue-minimisations  :     0
 total energy-change (2. order) :-0.1633333E+00  (-0.5589289E-01)
 number of electron      36.0000000 magnetization 
 augmentation part        0.1036091 magnetization 

 Free energy of the ion-electron system (eV)
  ---------------------------------------------------
  alpha Z        PSCENC =         0.35173684
  Ewald energy   TEWEN  =      2549.12670408
  -Hartree energ DENC   =     -3933.93619875
  -exchange      EXHF   =         0.00000000
  -V(xc)+E(xc)   XCENC  =       112.33977353
  PAW double counting   =     14516.09746653   -14498.87903437
  entropy T*S    EENTRO =        -0.00000000
  eigenvalues    EBANDS =      -484.72782463
  atomic energy  EATOM  =      1673.09273621
  ---------------------------------------------------
  free energy    TOTEN  =       -66.53464057 eV

  energy without entropy =      -66.53464057  energy(sigma->0) =      -66.53464057


--------------------------------------------------------------------------------------------------------




--------------------------------------- Iteration      1(  11)  ---------------------------------------


    POTLOK:  cpu time     21.1998: real time     21.2060
    SETDIJ:  cpu time      0.0571: real time      0.0571
    TRIAL :  cpu time      0.5148: real time      0.5148
    CORREC:  cpu time     21.5662: real time     21.5723
    CHARGE:  cpu time      0.2007: real time      0.2008
    --------------------------------------------
      LOOP:  cpu time     43.5549: real time     43.5822

 eigenvalue-minimisations  :     0
 total energy-change (2. order) :-0.5564046E-01  (-0.1842478E-01)
 number of electron      36.0000000 magnetization 
 augmentation part        0.1054670 magnetization 

 Free energy of the ion-electron system (eV)
  ---------------------------------------------------
  alpha Z        PSCENC =         0.35173684
  Ewald energy   TEWEN  =      2549.12670408
  -Hartree energ DENC   =     -3932.37001526
  -exchange      EXHF   =         0.00000000
  -V(xc)+E(xc)   XCENC  =       112.31644976
  PAW double counting   =     14213.94657411   -14196.75889903
  entropy T*S    EENTRO =        -0.00000000
  eigenvalues    EBANDS =      -486.29556773
  atomic energy  EATOM  =      1673.09273621
  ---------------------------------------------------
  free energy    TOTEN  =       -66.59028102 eV

  energy without entropy =      -66.59028102  energy(sigma->0) =      -66.59028102


--------------------------------------------------------------------------------------------------------




--------------------------------------- Iteration      1(  12)  ---------------------------------------


    POTLOK:  cpu time     21.2257: real time     21.2315
    SETDIJ:  cpu time      0.0499: real time      0.0499
    TRIAL :  cpu time      0.5149: real time      0.5153
    CORREC:  cpu time     21.6465: real time     21.6525
    CHARGE:  cpu time      0.2009: real time      0.2014
    --------------------------------------------
      LOOP:  cpu time     43.6709: real time     43.6843

 eigenvalue-minimisations  :     0
 total energy-change (2. order) :-0.1840830E-01  (-0.5474209E-02)
 number of electron      36.0000000 magnetization 
 augmentation part        0.1059405 magnetization 

 Free energy of the ion-electron system (eV)
  ---------------------------------------------------
  alpha Z        PSCENC =         0.35173684
  Ewald energy   TEWEN  =      2549.12670408
  -Hartree energ DENC   =     -3932.12836217
  -exchange      EXHF   =         0.00000000
  -V(xc)+E(xc)   XCENC  =       112.29534478
  PAW double counting   =     14105.78692750   -14088.61496858
  entropy T*S    EENTRO =        -0.00000000
  eigenvalues    EBANDS =      -486.51880797
  atomic energy  EATOM  =      1673.09273621
  ---------------------------------------------------
  free energy    TOTEN  =       -66.60868932 eV

  energy without entropy =      -66.60868932  energy(sigma->0) =      -66.60868932


--------------------------------------------------------------------------------------------------------




--------------------------------------- Iteration      1(  13)  ---------------------------------------


    POTLOK:  cpu time     21.2922: real time     21.2974
    SETDIJ:  cpu time      0.0012: real time      0.0012
    TRIAL :  cpu time      0.5135: real time      0.5137
    CORREC:  cpu time     21.5465: real time     21.5524
    CHARGE:  cpu time      0.1993: real time      0.1994
    --------------------------------------------
      LOOP:  cpu time     43.5672: real time     43.5948

 eigenvalue-minimisations  :     0
 total energy-change (2. order) :-0.5493859E-02  (-0.1881736E-02)
 number of electron      36.0000000 magnetization 
 augmentation part        0.1061013 magnetization 

 Free energy of the ion-electron system (eV)
  ---------------------------------------------------
  alpha Z        PSCENC =         0.35173684
  Ewald energy   TEWEN  =      2549.12670408
  -Hartree energ DENC   =     -3931.96084506
  -exchange      EXHF   =         0.00000000
  -V(xc)+E(xc)   XCENC  =       112.28491095
  PAW double counting   =     14101.76208748   -14084.59489512
  entropy T*S    EENTRO =        -0.00000000
  eigenvalues    EBANDS =      -486.67661856
  atomic energy  EATOM  =      1673.09273621
  ---------------------------------------------------
  free energy    TOTEN  =       -66.61418318 eV

  energy without entropy =      -66.61418318  energy(sigma->0) =      -66.61418318


--------------------------------------------------------------------------------------------------------




--------------------------------------- Iteration      1(  14)  ---------------------------------------


    POTLOK:  cpu time     21.1978: real time     21.2036
    SETDIJ:  cpu time      0.0317: real time      0.0321
    TRIAL :  cpu time      0.5151: real time      0.5152
    CORREC:  cpu time     21.5521: real time     21.5586
    CHARGE:  cpu time      0.1999: real time      0.2001
    --------------------------------------------
      LOOP:  cpu time     43.5094: real time     43.5406

 eigenvalue-minimisations  :     0
 total energy-change (2. order) :-0.1899729E-02  (-0.6860718E-03)
 number of electron      36.0000000 magnetization 
 augmentation part        0.1061698 magnetization 

 Free energy of the ion-electron system (eV)
  ---------------------------------------------------
  alpha Z        PSCENC =         0.35173684
  Ewald energy   TEWEN  =      2549.12670408
  -Hartree energ DENC   =     -3931.83711223
  -exchange      EXHF   =         0.00000000
  -V(xc)+E(xc)   XCENC  =       112.27932996
  PAW double counting   =     14119.62464916   -14102.45857754
  entropy T*S    EENTRO =        -0.00000000
  eigenvalues    EBANDS =      -486.79554939
  atomic energy  EATOM  =      1673.09273621
  ---------------------------------------------------
  free energy    TOTEN  =       -66.61608291 eV

  energy without entropy =      -66.61608291  energy(sigma->0) =      -66.61608291


--------------------------------------------------------------------------------------------------------




--------------------------------------- Iteration      1(  15)  ---------------------------------------


    POTLOK:  cpu time     21.1811: real time     21.1865
    SETDIJ:  cpu time      0.0056: real time      0.0056
    TRIAL :  cpu time      0.5139: real time      0.5143
    CORREC:  cpu time     21.5961: real time     21.6021
    CHARGE:  cpu time      0.1998: real time      0.2000
    --------------------------------------------
      LOOP:  cpu time     43.5103: real time     43.5386

 eigenvalue-minimisations  :     0
 total energy-change (2. order) :-0.6998592E-03  (-0.2630157E-03)
 number of electron      36.0000000 magnetization 
 augmentation part        0.1062235 magnetization 

 Free energy of the ion-electron system (eV)
  ---------------------------------------------------
  alpha Z        PSCENC =         0.35173684
  Ewald energy   TEWEN  =      2549.12670408
  -Hartree energ DENC   =     -3932.04733471
  -exchange      EXHF   =         0.00000000
  -V(xc)+E(xc)   XCENC  =       112.28475449
  PAW double counting   =     14126.33570685   -14109.16999333
  entropy T*S    EENTRO =        -0.00000000
  eigenvalues    EBANDS =      -486.59109320
  atomic energy  EATOM  =      1673.09273621
  ---------------------------------------------------
  free energy    TOTEN  =       -66.61678277 eV

  energy without entropy =      -66.61678277  energy(sigma->0) =      -66.61678277


--------------------------------------------------------------------------------------------------------




--------------------------------------- Iteration      1(  16)  ---------------------------------------


    POTLOK:  cpu time     21.1758: real time     21.1820
    SETDIJ:  cpu time      0.0441: real time      0.0441
    TRIAL :  cpu time      0.5154: real time      0.5155
    CORREC:  cpu time     21.5076: real time     21.5138
    CHARGE:  cpu time      0.2003: real time      0.2005
    --------------------------------------------
      LOOP:  cpu time     43.4565: real time     43.4919

 eigenvalue-minimisations  :     0
 total energy-change (2. order) :-0.2716140E-03  (-0.9958870E-04)
 number of electron      36.0000000 magnetization 
 augmentation part        0.1062599 magnetization 

 Free energy of the ion-electron system (eV)
  ---------------------------------------------------
  alpha Z        PSCENC =         0.35173684
  Ewald energy   TEWEN  =      2549.12670408
  -Hartree energ DENC   =     -3932.15329031
  -exchange      EXHF   =         0.00000000
  -V(xc)+E(xc)   XCENC  =       112.28719845
  PAW double counting   =     14119.88165734   -14102.71574100
  entropy T*S    EENTRO =        -0.00000000
  eigenvalues    EBANDS =      -486.48805599
  atomic energy  EATOM  =      1673.09273621
  ---------------------------------------------------
  free energy    TOTEN  =       -66.61705438 eV

  energy without entropy =      -66.61705438  energy(sigma->0) =      -66.61705438


--------------------------------------------------------------------------------------------------------




--------------------------------------- Iteration      1(  17)  ---------------------------------------


    POTLOK:  cpu time     21.1126: real time     21.1183
    SETDIJ:  cpu time      0.0136: real time      0.0136
    TRIAL :  cpu time      0.5149: real time      0.5150
    CORREC:  cpu time     21.5185: real time     21.5245
    CHARGE:  cpu time      0.1993: real time      0.1994
    --------------------------------------------
      LOOP:  cpu time     43.3891: real time     43.4012

 eigenvalue-minimisations  :     0
 total energy-change (2. order) :-0.1038424E-03  (-0.3578590E-04)
 number of electron      36.0000000 magnetization 
 augmentation part        0.1063206 magnetization 

 Free energy of the ion-electron system (eV)
  ---------------------------------------------------
  alpha Z        PSCENC =         0.35173684
  Ewald energy   TEWEN  =      2549.12670408
  -Hartree energ DENC   =     -3932.15730480
  -exchange      EXHF   =         0.00000000
  -V(xc)+E(xc)   XCENC  =       112.28651573
  PAW double counting   =     14111.38735058   -14094.22104862
  entropy T*S    EENTRO =        -0.00000000
  eigenvalues    EBANDS =      -486.48384825
  atomic energy  EATOM  =      1673.09273621
  ---------------------------------------------------
  free energy    TOTEN  =       -66.61715823 eV

  energy without entropy =      -66.61715823  energy(sigma->0) =      -66.61715823


--------------------------------------------------------------------------------------------------------




--------------------------------------- Iteration      1(  18)  ---------------------------------------


    POTLOK:  cpu time     21.5640: real time     21.5697
    SETDIJ:  cpu time      0.0011: real time      0.0011
    TRIAL :  cpu time      0.5142: real time      0.5143
    CORREC:  cpu time     21.4799: real time     21.4862
    CHARGE:  cpu time      0.2001: real time      0.2005
    --------------------------------------------
      LOOP:  cpu time     43.7894: real time     43.8020

 eigenvalue-minimisations  :     0
 total energy-change (2. order) :-0.3770374E-04  (-0.1260080E-04)
 number of electron      36.0000000 magnetization 
 augmentation part        0.1063012 magnetization 

 Free energy of the ion-electron system (eV)
  ---------------------------------------------------
  alpha Z        PSCENC =         0.35173684
  Ewald energy   TEWEN  =      2549.12670408
  -Hartree energ DENC   =     -3932.22993825
  -exchange      EXHF   =         0.00000000
  -V(xc)+E(xc)   XCENC  =       112.28973074
  PAW double counting   =     14107.84736925   -14090.68150272
  entropy T*S    EENTRO =        -0.00000000
  eigenvalues    EBANDS =      -486.41403209
  atomic energy  EATOM  =      1673.09273621
  ---------------------------------------------------
  free energy    TOTEN  =       -66.61719593 eV

  energy without entropy =      -66.61719593  energy(sigma->0) =      -66.61719593


--------------------------------------------------------------------------------------------------------




--------------------------------------- Iteration      1(  19)  ---------------------------------------


    POTLOK:  cpu time     21.0954: real time     21.1011
    SETDIJ:  cpu time      0.0408: real time      0.0408
    TRIAL :  cpu time      0.5131: real time      0.5135
    CORREC:  cpu time     21.5740: real time     21.5797
    CHARGE:  cpu time      0.2003: real time      0.2008
    --------------------------------------------
      LOOP:  cpu time     43.4390: real time     43.4737

 eigenvalue-minimisations  :     0
 total energy-change (2. order) :-0.1327917E-04  (-0.4715568E-05)
 number of electron      36.0000000 magnetization 
 augmentation part        0.1062852 magnetization 

 Free energy of the ion-electron system (eV)
  ---------------------------------------------------
  alpha Z        PSCENC =         0.35173684
  Ewald energy   TEWEN  =      2549.12670408
  -Hartree energ DENC   =     -3932.21492935
  -exchange      EXHF   =         0.00000000
  -V(xc)+E(xc)   XCENC  =       112.28941674
  PAW double counting   =     14109.21031127   -14092.04416839
  entropy T*S    EENTRO =        -0.00000000
  eigenvalues    EBANDS =      -486.42901661
  atomic energy  EATOM  =      1673.09273621
  ---------------------------------------------------
  free energy    TOTEN  =       -66.61720921 eV

  energy without entropy =      -66.61720921  energy(sigma->0) =      -66.61720921


--------------------------------------------------------------------------------------------------------




--------------------------------------- Iteration      1(  20)  ---------------------------------------


    POTLOK:  cpu time     21.1671: real time     21.1722
    SETDIJ:  cpu time      0.0008: real time      0.0008
    TRIAL :  cpu time      0.5134: real time      0.5135
    CORREC:  cpu time     21.6502: real time     21.6561
    CHARGE:  cpu time      0.2002: real time      0.2003
    --------------------------------------------
      LOOP:  cpu time     43.5461: real time     43.5739

 eigenvalue-minimisations  :     0
 total energy-change (2. order) :-0.5033895E-05  (-0.2001766E-05)
 number of electron      36.0000000 magnetization 
 augmentation part        0.1062778 magnetization 

 Free energy of the ion-electron system (eV)
  ---------------------------------------------------
  alpha Z        PSCENC =         0.35173684
  Ewald energy   TEWEN  =      2549.12670408
  -Hartree energ DENC   =     -3932.21306961
  -exchange      EXHF   =         0.00000000
  -V(xc)+E(xc)   XCENC  =       112.28947996
  PAW double counting   =     14111.59338679   -14094.42713406
  entropy T*S    EENTRO =        -0.00000000
  eigenvalues    EBANDS =      -486.43105445
  atomic energy  EATOM  =      1673.09273621
  ---------------------------------------------------
  free energy    TOTEN  =       -66.61721424 eV

  energy without entropy =      -66.61721424  energy(sigma->0) =      -66.61721424


--------------------------------------------------------------------------------------------------------




--------------------------------------- Iteration      1(  21)  ---------------------------------------


    POTLOK:  cpu time     21.1258: real time     21.1314
    SETDIJ:  cpu time      0.0136: real time      0.0136
    TRIAL :  cpu time      0.5143: real time      0.5151
    CORREC:  cpu time     21.5734: real time     21.5797
    CHARGE:  cpu time      0.2000: real time      0.2004
    --------------------------------------------
      LOOP:  cpu time     43.4442: real time     43.4703

 eigenvalue-minimisations  :     0
 total energy-change (2. order) :-0.2137333E-05  (-0.8483637E-06)
 number of electron      36.0000000 magnetization 
 augmentation part        0.1062623 magnetization 

 Free energy of the ion-electron system (eV)
  ---------------------------------------------------
  alpha Z        PSCENC =         0.35173684
  Ewald energy   TEWEN  =      2549.12670408
  -Hartree energ DENC   =     -3932.22029159
  -exchange      EXHF   =         0.00000000
  -V(xc)+E(xc)   XCENC  =       112.28986976
  PAW double counting   =     14113.41325899   -14096.24703248
  entropy T*S    EENTRO =        -0.00000000
  eigenvalues    EBANDS =      -486.42419819
  atomic energy  EATOM  =      1673.09273621
  ---------------------------------------------------
  free energy    TOTEN  =       -66.61721638 eV

  energy without entropy =      -66.61721638  energy(sigma->0) =      -66.61721638


--------------------------------------------------------------------------------------------------------




--------------------------------------- Iteration      1(  22)  ---------------------------------------


    POTLOK:  cpu time     21.1487: real time     21.1539
    SETDIJ:  cpu time      0.0345: real time      0.0345
    TRIAL :  cpu time      0.5138: real time      0.5138
    CORREC:  cpu time     21.5700: real time     21.5756
    CHARGE:  cpu time      0.2011: real time      0.2012
    --------------------------------------------
      LOOP:  cpu time     43.4830: real time     43.5156

 eigenvalue-minimisations  :     0
 total energy-change (2. order) :-0.8987154E-06  (-0.4398977E-06)
 number of electron      36.0000000 magnetization 
 augmentation part        0.1062620 magnetization 

 Free energy of the ion-electron system (eV)
  ---------------------------------------------------
  alpha Z        PSCENC =         0.35173684
  Ewald energy   TEWEN  =      2549.12670408
  -Hartree energ DENC   =     -3932.20973352
  -exchange      EXHF   =         0.00000000
  -V(xc)+E(xc)   XCENC  =       112.28951366
  PAW double counting   =     14114.32035073   -14097.15403092
  entropy T*S    EENTRO =        -0.00000000
  eigenvalues    EBANDS =      -486.43449436
  atomic energy  EATOM  =      1673.09273621
  ---------------------------------------------------
  free energy    TOTEN  =       -66.61721728 eV

  energy without entropy =      -66.61721728  energy(sigma->0) =      -66.61721728


--------------------------------------------------------------------------------------------------------




--------------------------------------- Iteration      1(  23)  ---------------------------------------


    POTLOK:  cpu time     21.1976: real time     21.2032
    SETDIJ:  cpu time      0.0013: real time      0.0013
    TRIAL :  cpu time      0.5253: real time      0.5257
    CORREC:  cpu time     21.5740: real time     21.5799
    CHARGE:  cpu time      0.2027: real time      0.2031
    --------------------------------------------
      LOOP:  cpu time     43.5156: real time     43.5435

 eigenvalue-minimisations  :     0
 total energy-change (2. order) :-0.4147405E-06  (-0.2598985E-06)
 number of electron      36.0000000 magnetization 
 augmentation part        0.1062497 magnetization 

 Free energy of the ion-electron system (eV)
  ---------------------------------------------------
  alpha Z        PSCENC =         0.35173684
  Ewald energy   TEWEN  =      2549.12670408
  -Hartree energ DENC   =     -3932.21642731
  -exchange      EXHF   =         0.00000000
  -V(xc)+E(xc)   XCENC  =       112.28980799
  PAW double counting   =     14114.29993364   -14097.13368472
  entropy T*S    EENTRO =        -0.00000000
  eigenvalues    EBANDS =      -486.42802442
  atomic energy  EATOM  =      1673.09273621
  ---------------------------------------------------
  free energy    TOTEN  =       -66.61721769 eV

  energy without entropy =      -66.61721769  energy(sigma->0) =      -66.61721769


--------------------------------------------------------------------------------------------------------




--------------------------------------- Iteration      1(  24)  ---------------------------------------


    POTLOK:  cpu time     21.1276: real time     21.1332
    SETDIJ:  cpu time      0.4251: real time      0.4252
    TRIAL :  cpu time      0.5299: real time      0.5302
    CORREC:  cpu time     21.5134: real time     21.5196
    CHARGE:  cpu time      0.2004: real time      0.2005
    --------------------------------------------
      LOOP:  cpu time     43.8110: real time     43.8406

 eigenvalue-minimisations  :     0
 total energy-change (2. order) :-0.1018252E-06  (-0.1874279E-06)
 number of electron      36.0000000 magnetization 
 augmentation part        0.1062572 magnetization 

 Free energy of the ion-electron system (eV)
  ---------------------------------------------------
  alpha Z        PSCENC =         0.35173684
  Ewald energy   TEWEN  =      2549.12670408
  -Hartree energ DENC   =     -3932.20511631
  -exchange      EXHF   =         0.00000000
  -V(xc)+E(xc)   XCENC  =       112.28926267
  PAW double counting   =     14113.81835338   -14096.65201428
  entropy T*S    EENTRO =        -0.00000000
  eigenvalues    EBANDS =      -486.43888038
  atomic energy  EATOM  =      1673.09273621
  ---------------------------------------------------
  free energy    TOTEN  =       -66.61721780 eV

  energy without entropy =      -66.61721780  energy(sigma->0) =      -66.61721780


--------------------------------------------------------------------------------------------------------




--------------------------------------- Iteration      1(  25)  ---------------------------------------


    POTLOK:  cpu time     21.2246: real time     21.2306
    SETDIJ:  cpu time      0.0010: real time      0.0010
    TRIAL :  cpu time      0.5160: real time      0.5161
    CORREC:  cpu time     21.9718: real time     21.9815
    CHARGE:  cpu time      0.2003: real time      0.2008
    --------------------------------------------
      LOOP:  cpu time     43.9263: real time     43.9739

 eigenvalue-minimisations  :     0
 total energy-change (2. order) :-0.1763729E-06  (-0.6579201E-07)
 number of electron      36.0000000 magnetization 
 augmentation part        0.1062566 magnetization 

 Free energy of the ion-electron system (eV)
  ---------------------------------------------------
  alpha Z        PSCENC =         0.35173684
  Ewald energy   TEWEN  =      2549.12670408
  -Hartree energ DENC   =     -3932.21391879
  -exchange      EXHF   =         0.00000000
  -V(xc)+E(xc)   XCENC  =       112.28966004
  PAW double counting   =     14113.76338840   -14096.59713264
  entropy T*S    EENTRO =        -0.00000000
  eigenvalues    EBANDS =      -486.43039212
  atomic energy  EATOM  =      1673.09273621
  ---------------------------------------------------
  free energy    TOTEN  =       -66.61721797 eV

  energy without entropy =      -66.61721797  energy(sigma->0) =      -66.61721797


--------------------------------------------------------------------------------------------------------




--------------------------------------- Iteration      1(  26)  ---------------------------------------


    POTLOK:  cpu time     21.1131: real time     21.1192
    SETDIJ:  cpu time      0.0038: real time      0.0042
    TRIAL :  cpu time      0.5265: real time      0.5279
    CORREC:  cpu time     21.5850: real time     21.5910
    EDDIAG:  cpu time      0.2245: real time      0.2252
    CHARGE:  cpu time      0.2001: real time      0.2003
    --------------------------------------------
      LOOP:  cpu time     43.6706: real time     43.7004

 eigenvalue-minimisations  :     0
 total energy-change (2. order) :-0.6589471E-07  (-0.2044245E-07)
 number of electron      36.0000000 magnetization 
 augmentation part        0.1062562 magnetization 

 Free energy of the ion-electron system (eV)
  ---------------------------------------------------
  alpha Z        PSCENC =         0.35173684
  Ewald energy   TEWEN  =      2549.12670408
  -Hartree energ DENC   =     -3932.21242487
  -exchange      EXHF   =         0.00000000
  -V(xc)+E(xc)   XCENC  =       112.28959112
  PAW double counting   =     14113.75743330   -14096.59115850
  entropy T*S    EENTRO =        -0.00000000
  eigenvalues    EBANDS =      -486.43183623
  atomic energy  EATOM  =      1673.09273621
  ---------------------------------------------------
  free energy    TOTEN  =       -66.61721804 eV

  energy without entropy =      -66.61721804  energy(sigma->0) =      -66.61721804


--------------------------------------------------------------------------------------------------------


  average scaling for gradient   1.1368


 average (electrostatic) potential at core
  the test charge radii are     0.5770  0.4325  0.5902  0.5955
  (the norm of the test charge is              1.0000)
       1 -90.1892       2 -87.9854       3 -86.5988       4 -48.2250       5 -48.2475
       6 -45.8930       7 -45.8927       8 -45.9579       9 -45.7973      10 -45.8041
      11-104.7528      12-118.9030      13-120.6838



 E-fermi :  -6.4156     XC(G=0):  -0.3903     alpha+bet : -0.0715

 Fermi energy:        -6.4156430170

 k-point     1 :       0.0000    0.0000    0.0000
  band No.  band energies     occupation 
      1     -27.5354      2.00000
      2     -25.2084      2.00000
      3     -22.7861      2.00000
      4     -19.1297      2.00000
      5     -16.1604      2.00000
      6     -14.4891      2.00000
      7     -13.8038      2.00000
      8     -12.7279      2.00000
      9     -12.0993      2.00000
     10     -10.9934      2.00000
     11     -10.5777      2.00000
     12      -9.9955      2.00000
     13      -9.7027      2.00000
     14      -8.9627      2.00000
     15      -8.6396      2.00000
     16      -7.1616      2.00000
     17      -6.7616      2.00000
     18      -6.4819      2.00000
     19      -1.9821      0.00000
     20      -1.3674      0.00000
     21      -1.3479      0.00000
     22      -1.0018      0.00000
     23      -0.9571      0.00000
     24      -0.7765      0.00000
     25      -0.6942      0.00000
     26      -0.4569      0.00000
     27      -0.2477      0.00000
     28      -0.2044      0.00000
     29      -0.1142      0.00000
     30      -0.0080      0.00000
     31       0.0834      0.00000
     32       0.1956      0.00000


--------------------------------------------------------------------------------------------------------


 soft charge-density along one line, spin component           1
         0         1         2         3         4         5         6         7         8         9
 total charge-density along one line

 pseudopotential strength for first ion, spin component:           1
 12.821  21.580  -0.009  -0.000  -0.001  -0.016  -0.000  -0.002
 21.580  36.320  -0.015  -0.000  -0.002  -0.027  -0.001  -0.004
 -0.009  -0.015  -3.306   0.001   0.003  -5.931   0.002   0.004
 -0.000  -0.000   0.001  -3.312   0.001   0.002  -5.941   0.002
 -0.001  -0.002   0.003   0.001  -3.305   0.004   0.002  -5.929
 -0.016  -0.027  -5.931   0.002   0.004 -10.616   0.003   0.008
 -0.000  -0.001   0.002  -5.941   0.002   0.003 -10.633   0.003
 -0.002  -0.004   0.004   0.002  -5.929   0.008   0.003 -10.612
 total augmentation occupancy for first ion, spin component:           1
  7.864  -2.942   1.151   0.228   0.720  -0.503  -0.100  -0.364
 -2.942   1.223  -0.484  -0.106  -0.376   0.220   0.045   0.195
  1.151  -0.484   8.054   0.756   1.268  -2.950  -0.323  -0.529
  0.228  -0.106   0.756   2.730   0.296  -0.323  -0.669  -0.117
  0.720  -0.376   1.268   0.296   7.145  -0.528  -0.117  -2.484
 -0.503   0.220  -2.950  -0.323  -0.528   1.128   0.136   0.224
 -0.100   0.045  -0.323  -0.669  -0.117   0.136   0.170   0.049
 -0.364   0.195  -0.529  -0.117  -2.484   0.224   0.049   0.893


------------------------ aborting loop because EDIFF is reached ----------------------------------------


    FORLOC:  cpu time      0.0500: real time      0.0504
    FORNL :  cpu time      0.0370: real time      0.0372
    FORCOR:  cpu time     21.1208: real time     21.1266
    OFIELD:  cpu time      0.0046: real time      0.0046

 VOLUME and BASIS-vectors are now :
 -----------------------------------------------------------------------------
  energy-cutoff  :     1000.00
  volume of cell :    10648.00
      direct lattice vectors                 reciprocal lattice vectors
    22.000000000  0.000000000  0.000000000     0.045454545  0.000000000  0.000000000
     0.000000000 22.000000000  0.000000000     0.000000000  0.045454545  0.000000000
     0.000000000  0.000000000 22.000000000     0.000000000  0.000000000  0.045454545

  length of vectors
    22.000000000 22.000000000 22.000000000     0.045454545  0.045454545  0.045454545


 FORCES acting on ions:
    Electron-Ion                     Ewald-Force                    Non-Local-Force
 -----------------------------------------------------------------------------------------------
   0.846E+02 -.247E+02 0.240E+01   -.836E+02 0.310E+02 -.217E+01   -.106E+01 -.659E+01 -.250E+00
   -.169E+03 -.814E+00 -.103E+02   0.180E+03 0.133E+01 0.110E+02   -.115E+02 -.549E+00 -.759E+00
   -.925E+02 0.148E+03 0.150E+02   0.921E+02 -.149E+03 -.152E+02   0.364E+00 0.106E+01 0.144E+00
   0.690E+02 -.734E+02 0.689E+01   -.728E+02 0.801E+02 -.744E+01   0.373E+01 -.669E+01 0.550E+00
   0.709E+02 0.637E+02 0.260E+02   -.743E+02 -.701E+02 -.283E+02   0.343E+01 0.640E+01 0.231E+01
   -.483E+02 -.197E+02 -.683E+02   0.500E+02 0.220E+02 0.735E+02   -.172E+01 -.222E+01 -.516E+01
   -.557E+02 -.367E+02 0.541E+02   0.580E+02 0.402E+02 -.582E+02   -.228E+01 -.351E+01 0.411E+01
   -.736E+02 0.241E+02 -.118E+01   0.792E+02 -.247E+02 0.145E+01   -.562E+01 0.577E+00 -.268E+00
   0.976E+01 0.609E+02 -.450E+02   -.121E+02 -.642E+02 0.491E+02   0.229E+01 0.327E+01 -.405E+01
   0.323E+01 0.461E+02 0.608E+02   -.496E+01 -.482E+02 -.658E+02   0.173E+01 0.200E+01 0.502E+01
   0.275E+03 -.228E+02 -.131E+02   -.278E+03 0.212E+02 0.235E+02   0.288E+01 0.154E+01 -.106E+02
   -.143E+03 -.376E+03 -.539E+02   0.172E+03 0.421E+03 0.610E+02   -.291E+02 -.455E+02 -.717E+01
   0.839E+02 0.222E+03 0.360E+02   -.106E+03 -.261E+03 -.425E+02   0.221E+02 0.390E+02 0.648E+01
 -----------------------------------------------------------------------------------------------
   0.148E+02 0.112E+02 0.961E+01   0.000E+00 0.568E-13 -.213E-13   -.148E+02 -.112E+02 -.961E+01


 POSITION                                       TOTAL-FORCE (eV/Angst)
 -----------------------------------------------------------------------------------
     10.20352     12.19071     11.15459        -0.005164      0.007839      0.002757
     12.17506     10.87041     11.08975         0.000212     -0.002181      0.002132
     12.56559      9.42006     10.91172        -0.000404      0.003817     -0.000170
      8.34401     13.00833     11.04008        -0.001549      0.005336     -0.004605
      8.38118     11.28726     10.80669        -0.002550     -0.002740     -0.001210
     12.49307     11.26833     12.06130        -0.000626     -0.000660     -0.002174
     12.59879     11.51269     10.30793        -0.004350     -0.002281      0.001304
     13.65599      9.32217     10.96549         0.003320      0.002043      0.000061
     12.12411      8.79651     11.69710         0.000531     -0.002126      0.000387
     12.23315      9.04133      9.93870        -0.000173     -0.002094     -0.000419
      8.83649     12.13133     11.12503         0.007257      0.004449      0.006573
     10.85947     13.20349     11.31353        -0.005540     -0.018928     -0.001228
     10.72612     10.93578     11.01325         0.009035      0.007528     -0.003409
 -----------------------------------------------------------------------------------
    total drift:                                0.000553     -0.001380     -0.001045


--------------------------------------------------------------------------------------------------------



  FREE ENERGIE OF THE ION-ELECTRON SYSTEM (eV)
  ---------------------------------------------------
  free  energy   TOTEN  =       -66.61721804 eV

  energy  without entropy=      -66.61721804  energy(sigma->0) =      -66.61721804



--------------------------------------------------------------------------------------------------------


    POTLOK:  cpu time     21.1868: real time     21.1929


--------------------------------------------------------------------------------------------------------


 stress matrix after NEB project (eV)
      0.00000      0.00000      0.00000
      0.00000      0.00000      0.00000
      0.00000      0.00000      0.00000
  FORCES: max atom, RMS     0.019760    0.008319
  FORCE total and by dimension    0.029993    0.018928
  Stress total and by dimension    0.000000    0.000000
     LOOP+:  cpu time    984.5969: real time    985.2777
    4ORBIT:  cpu time      0.0000: real time      0.0000

 total amount of memory used by VASP MPI-rank0   114458. kBytes
=======================================================================

   base      :      30000. kBytes
   nonl-proj :       5538. kBytes
   fftplans  :      24880. kBytes
   grid      :      51747. kBytes
   one-center:          1. kBytes
   wavefun   :       2292. kBytes

  
  
 General timing and accounting informations for this job:
 ========================================================
  
                  Total CPU time used (sec):     1013.126
                            User time (sec):     1001.053
                          System time (sec):       12.073
                         Elapsed time (sec):     1022.244
  
                   Maximum memory used (kb):      619856.
                   Average memory used (kb):          N/A
  
                          Minor page faults:       423565
                          Major page faults:          641
                 Voluntary context switches:         7762
