 vasp.6.4.1 05Apr23 (build Jun  6 2023 14:46:38) gamma-only                      
 executed on        HPECrayEX_GCC date 2024.08.21  16:54:47
 running  512 mpi-ranks, with    1 threads/rank, on    4 nodes
 distrk:  each k-point on  256 cores,    2 groups
 distr:  one band on NCORE=  32 cores,    8 groups


--------------------------------------------------------------------------------------------------------


 INCAR:
   ALGO = Conjugate
   KPAR = 2
   NCORE = 32
   PREC = Accurate
   EDIFF = 1E-7
   ENCUT = 1000
   ISMEAR = 0
   SIGMA = 0.01
   ISIF = 0
   GGA = PE
   IVDW = 202
   LVDWEXPANSION = .TRUE.
   LWAVE = .FALSE.
   LCHARG = .FALSE.
   SYMPREC = 1E-7
   LWAVE = .FALSE.
   LCHARG = .FALSE.

 POTCAR:    PAW_PBE C_h 06Feb2004                 
 POTCAR:    PAW_PBE H_h 06Feb2004                 
 POTCAR:    PAW_PBE N_h 06Feb2004                 
 POTCAR:    PAW_PBE O_h 06Feb2004                 
 POTCAR:    PAW_PBE C_h 06Feb2004                 
   VRHFIN =C: s2p2                                                                                  
   LEXCH  = PE                                                                                      
   EATOM  =   147.1560 eV,   10.8157 Ry                                                             
                                                                                                    
   TITEL  = PAW_PBE C_h 06Feb2004                                                                   
   LULTRA =        F    use ultrasoft PP ?                                                          
   IUNSCR =        1    unscreen: 0-lin 1-nonlin 2-no                                               
   RPACOR =    0.800    partial core radius                                                         
   POMASS =   12.011; ZVAL   =    4.000    mass and valenz                                          
   RCORE  =    1.100    outmost cutoff radius                                                       
   RWIGS  =    1.630; RWIGS  =    0.863    wigner-seitz radius (au A)                               
   ENMAX  =  700.000; ENMIN  =  500.000 eV                                                          
   ICORE  =        2    local potential                                                             
   LCOR   =        T    correct aug charges                                                         
   LPAW   =        T    paw PP                                                                      
   EAUG   =  946.768                                                                                
   DEXC   =    0.000                                                                                
   RMAX   =    1.128    core radius for proj-oper                                                   
   RAUG   =    1.300    factor for augmentation sphere                                              
   RDEP   =    1.162    radius for radial grids                                                     
   RDEPT  =    1.088    core radius for aug-charge                                                  
                                                                                                    
   Atomic configuration                                                                             
    4 entries                                                                                       
     n  l   j            E        occ.                                                              
     1  0  0.50      -273.3789   2.0000                                                             
     2  0  0.50       -13.7508   2.0000                                                             
     2  1  0.50        -5.2854   2.0000                                                             
     3  2  1.50        -5.4423   0.0000                                                             
   Description                                                                                      
     l       E           TYP  RCUT    TYP  RCUT                                                     
     0    -13.7508458     23  1.100                                                                 
     0     -8.2022199     23  1.100                                                                 
     1     -5.2854383     23  1.100                                                                 
     1      1.1560700     23  1.100                                                                 
     2     -5.4423304      7  1.100                                                                 
  local pseudopotential read in
  partial core-charges read in
  partial kinetic energy density read in
  atomic valenz-charges read in
  non local Contribution for L=           0  read in
    real space projection operators read in
  non local Contribution for L=           0  read in
    real space projection operators read in
  non local Contribution for L=           1  read in
    real space projection operators read in
  non local Contribution for L=           1  read in
    real space projection operators read in
    PAW grid and wavefunctions read in

   number of l-projection  operators is LMAX  =           4
   number of lm-projection operators is LMMAX =           8

 POTCAR:    PAW_PBE H_h 06Feb2004                 
   VRHFIN =H: ultrasoft test                                                                        
   LEXCH  = PE                                                                                      
   EATOM  =    12.4884 eV,    0.9179 Ry                                                             
                                                                                                    
   TITEL  = PAW_PBE H_h 06Feb2004                                                                   
   LULTRA =        F    use ultrasoft PP ?                                                          
   IUNSCR =        0    unscreen: 0-lin 1-nonlin 2-no                                               
   RPACOR =    0.000    partial core radius                                                         
   POMASS =    1.000; ZVAL   =    1.000    mass and valenz                                          
   RCORE  =    0.800    outmost cutoff radius                                                       
   RWIGS  =    0.700; RWIGS  =    0.370    wigner-seitz radius (au A)                               
   ENMAX  =  700.000; ENMIN  =  350.000 eV                                                          
   RCLOC  =    0.701    cutoff for local pot                                                        
   LCOR   =        T    correct aug charges                                                         
   LPAW   =        T    paw PP                                                                      
   EAUG   = 1000.000                                                                                
   RMAX   =    0.819    core radius for proj-oper                                                   
   RAUG   =    1.000    factor for augmentation sphere                                              
   RDEP   =    0.817    radius for radial grids                                                     
   RDEPT  =    0.817    core radius for aug-charge                                                  
                                                                                                    
   Atomic configuration                                                                             
    2 entries                                                                                       
     n  l   j            E        occ.                                                              
     1  0  0.50        -6.4927   1.0000                                                             
     2  1  0.50        -3.4015   0.0000                                                             
   Description                                                                                      
     l       E           TYP  RCUT    TYP  RCUT                                                     
     0     -6.4927493     23  0.800                                                                 
     0      6.8029130     23  0.800                                                                 
     1     -6.8029130     23  0.800                                                                 
  local pseudopotential read in
  atomic valenz-charges read in
  non local Contribution for L=           0  read in
    real space projection operators read in
  non local Contribution for L=           0  read in
    real space projection operators read in
  non local Contribution for L=           1  read in
    real space projection operators read in
    PAW grid and wavefunctions read in

   number of l-projection  operators is LMAX  =           3
   number of lm-projection operators is LMMAX =           5

 POTCAR:    PAW_PBE N_h 06Feb2004                 
   VRHFIN =N: s2p3                                                                                  
   LEXCH  = PE                                                                                      
   EATOM  =   264.5486 eV,   19.4438 Ry                                                             
                                                                                                    
   TITEL  = PAW_PBE N_h 06Feb2004                                                                   
   LULTRA =        F    use ultrasoft PP ?                                                          
   IUNSCR =        1    unscreen: 0-lin 1-nonlin 2-no                                               
   RPACOR =    0.800    partial core radius                                                         
   POMASS =   14.001; ZVAL   =    5.000    mass and valenz                                          
   RCORE  =    1.100    outmost cutoff radius                                                       
   RWIGS  =    1.480; RWIGS  =    0.783    wigner-seitz radius (au A)                               
   ENMAX  =  700.000; ENMIN  =  500.000 eV                                                          
   ICORE  =        2    local potential                                                             
   LCOR   =        T    correct aug charges                                                         
   LPAW   =        T    paw PP                                                                      
   EAUG   =  904.640                                                                                
   DEXC   =    0.000                                                                                
   RMAX   =    1.127    core radius for proj-oper                                                   
   RAUG   =    1.300    factor for augmentation sphere                                              
   RDEP   =    1.115    radius for radial grids                                                     
   RDEPT  =    1.106    core radius for aug-charge                                                  
                                                                                                    
   Atomic configuration                                                                             
    4 entries                                                                                       
     n  l   j            E        occ.                                                              
     1  0  0.50      -384.7179   2.0000                                                             
     2  0  0.50       -18.5828   2.0000                                                             
     2  1  0.50        -7.0898   3.0000                                                             
     3  2  1.50        -6.8029   0.0000                                                             
   Description                                                                                      
     l       E           TYP  RCUT    TYP  RCUT                                                     
     0    -18.5828117     23  1.100                                                                 
     0    -15.0750597     23  1.100                                                                 
     1     -7.0897851     23  1.100                                                                 
     1     -1.9663412     23  1.100                                                                 
     2     -6.8029130      7  1.100                                                                 
  local pseudopotential read in
  partial core-charges read in
  partial kinetic energy density read in
  kinetic energy density of atom read in
  atomic valenz-charges read in
  non local Contribution for L=           0  read in
    real space projection operators read in
  non local Contribution for L=           0  read in
    real space projection operators read in
  non local Contribution for L=           1  read in
    real space projection operators read in
  non local Contribution for L=           1  read in
    real space projection operators read in
    PAW grid and wavefunctions read in

   number of l-projection  operators is LMAX  =           4
   number of lm-projection operators is LMMAX =           8

 POTCAR:    PAW_PBE O_h 06Feb2004                 
   VRHFIN =O: s2p4                                                                                  
   LEXCH  = PE                                                                                      
   EATOM  =   432.3788 eV,   31.7789 Ry                                                             
                                                                                                    
   TITEL  = PAW_PBE O_h 06Feb2004                                                                   
   LULTRA =        F    use ultrasoft PP ?                                                          
   IUNSCR =        1    unscreen: 0-lin 1-nonlin 2-no                                               
   RPACOR =    0.800    partial core radius                                                         
   POMASS =   16.000; ZVAL   =    6.000    mass and valenz                                          
   RCORE  =    1.100    outmost cutoff radius                                                       
   RWIGS  =    1.400; RWIGS  =    0.741    wigner-seitz radius (au A)                               
   ENMAX  =  700.000; ENMIN  =  500.000 eV                                                          
   ICORE  =        2    local potential                                                             
   LCOR   =        T    correct aug charges                                                         
   LPAW   =        T    paw PP                                                                      
   EAUG   =  888.804                                                                                
   DEXC   =    0.000                                                                                
   RMAX   =    1.128    core radius for proj-oper                                                   
   RAUG   =    1.300    factor for augmentation sphere                                              
   RDEP   =    1.125    radius for radial grids                                                     
   RDEPT  =    1.088    core radius for aug-charge                                                  
                                                                                                    
   Atomic configuration                                                                             
    4 entries                                                                                       
     n  l   j            E        occ.                                                              
     1  0  0.50      -514.6923   2.0000                                                             
     2  0  0.50       -23.9615   2.0000                                                             
     2  1  0.50        -9.0305   4.0000                                                             
     3  2  1.50        -9.5241   0.0000                                                             
   Description                                                                                      
     l       E           TYP  RCUT    TYP  RCUT                                                     
     0    -23.9615319     23  1.100                                                                 
     0    -25.3221145     23  1.100                                                                 
     1     -9.0304911     23  1.100                                                                 
     1     -5.4802209     23  1.100                                                                 
     2     -9.5240782      7  1.100                                                                 
  local pseudopotential read in
  partial core-charges read in
  partial kinetic energy density read in
  atomic valenz-charges read in
  non local Contribution for L=           0  read in
    real space projection operators read in
  non local Contribution for L=           0  read in
    real space projection operators read in
  non local Contribution for L=           1  read in
    real space projection operators read in
  non local Contribution for L=           1  read in
    real space projection operators read in
    PAW grid and wavefunctions read in

   number of l-projection  operators is LMAX  =           4
   number of lm-projection operators is LMMAX =           8

  PAW_PBE C_h 06Feb2004                 :
 energy of atom  1       EATOM= -147.1560
 kinetic energy error for atom=    0.0031 (will be added to EATOM!!)
  PAW_PBE H_h 06Feb2004                 :
 energy of atom  2       EATOM=  -12.4884
 kinetic energy error for atom=    0.0006 (will be added to EATOM!!)
  PAW_PBE N_h 06Feb2004                 :
 energy of atom  3       EATOM= -264.5486
 kinetic energy error for atom=    0.0081 (will be added to EATOM!!)
  PAW_PBE O_h 06Feb2004                 :
 energy of atom  4       EATOM= -432.3788
 kinetic energy error for atom=    0.0171 (will be added to EATOM!!)


 POSCAR:  C  H  N  O
  positions in cartesian coordinates
  No initial velocities read in
 exchange correlation table for  LEXCH =        8
   RHO(1)=    0.500       N(1)  =     2000
   RHO(2)=  100.500       N(2)  =     4000

 VTST: version 4.1, (05/19/21)

 CHAIN: initializing optimizer
 
 OPT: Using VASP Dynamics algorithm
 CHAIN: Read ICHAIN            0

 POSCAR:  C  H  N  O
  positions in cartesian coordinates
  No initial velocities read in



--------------------------------------------------------------------------------------------------------


 ion  position               nearest neighbor table
   1  0.464  0.554  0.507-  12 1.22  13 1.37  11 1.37
   2  0.553  0.494  0.504-   7 1.10   6 1.10  13 1.45   3 1.51
   3  0.571  0.428  0.496-   9 1.10  10 1.10   8 1.10   2 1.51
   4  0.379  0.591  0.502-  11 1.01
   5  0.381  0.513  0.491-  11 1.01
   6  0.568  0.512  0.548-   2 1.10
   7  0.573  0.523  0.469-   2 1.10
   8  0.621  0.424  0.498-   3 1.10
   9  0.551  0.400  0.532-   3 1.10
  10  0.556  0.411  0.452-   3 1.10
  11  0.402  0.551  0.506-   4 1.01   5 1.01   1 1.37
  12  0.494  0.600  0.514-   1 1.22
  13  0.488  0.497  0.501-   1 1.37   2 1.45

  LATTYP: Found a simple cubic cell.
 ALAT       =    22.0000000000
  
  Lattice vectors:
  
 A1 = (  22.0000000000,   0.0000000000,   0.0000000000)
 A2 = (   0.0000000000,  22.0000000000,   0.0000000000)
 A3 = (   0.0000000000,   0.0000000000,  22.0000000000)


Analysis of symmetry for initial positions (statically):
=====================================================================
 Subroutine PRICEL returns:
 Original cell was already a primitive cell.
 

 Routine SETGRP: Setting up the symmetry group for a 
 simple cubic supercell.


 Subroutine GETGRP returns: Found  1 space group operations
 (whereof  1 operations were pure point group operations)
 out of a pool of 48 trial point group operations.


The static configuration has the point symmetry C_1 .


Analysis of symmetry for dynamics (positions and initial velocities):
=====================================================================
 Subroutine PRICEL returns:
 Original cell was already a primitive cell.
 

 Routine SETGRP: Setting up the symmetry group for a 
 simple cubic supercell.


 Subroutine GETGRP returns: Found  1 space group operations
 (whereof  1 operations were pure point group operations)
 out of a pool of 48 trial point group operations.


The dynamic configuration has the point symmetry C_1 .


 Subroutine INISYM returns: Found  1 space group operations
 (whereof  1 operations are pure point group operations),
 and found     1 'primitive' translations


----------------------------------------------------------------------------------------

                                     Primitive cell                                     

  volume of cell :   10648.0000

  direct lattice vectors                    reciprocal lattice vectors
    22.000000000  0.000000000  0.000000000     0.045454545  0.000000000  0.000000000
     0.000000000 22.000000000  0.000000000     0.000000000  0.045454545  0.000000000
     0.000000000  0.000000000 22.000000000     0.000000000  0.000000000  0.045454545

  length of vectors
    22.000000000 22.000000000 22.000000000     0.045454545  0.045454545  0.045454545

  position of ions in fractional coordinates (direct lattice)
     0.463796591  0.554123182  0.507026818
     0.553412045  0.494109545  0.504079545
     0.571163409  0.428184545  0.495987273
     0.379272955  0.591287727  0.501821818
     0.380962500  0.513057273  0.491213182
     0.567866591  0.512196818  0.548240909
     0.572672045  0.523304091  0.468542273
     0.620727045  0.423735000  0.498431364
     0.551095682  0.399841364  0.531686364
     0.556052500  0.410969545  0.451759091
     0.401658864  0.551424091  0.505683182
     0.493612500  0.600158636  0.514251364
     0.487551136  0.497080909  0.500602273

  ion indices of the primitive-cell ions
   primitive index   ion index
                 1           1
                 2           2
                 3           3
                 4           4
                 5           5
                 6           6
                 7           7
                 8           8
                 9           9
                10          10
                11          11
                12          12
                13          13

----------------------------------------------------------------------------------------



 KPOINTS: auto                                    

Automatic generation of k-mesh.
 Grid dimensions read from file:
 generate k-points for:    1    1    1

 Generating k-lattice:

  Cartesian coordinates                     Fractional coordinates (reciprocal lattice)
     0.045454545  0.000000000  0.000000000     1.000000000  0.000000000  0.000000000
     0.000000000  0.045454545  0.000000000     0.000000000  1.000000000  0.000000000
     0.000000000  0.000000000  0.045454545     0.000000000  0.000000000  1.000000000

  Length of vectors
     0.045454545  0.045454545  0.045454545

  Shift w.r.t. Gamma in fractional coordinates (k-lattice)
     0.000000000  0.000000000  0.000000000

 
 Subroutine IBZKPT returns following result:
 ===========================================
 
 Found      1 irreducible k-points:
 
 Following reciprocal coordinates:
            Coordinates               Weight
  0.000000  0.000000  0.000000      1.000000
 
 Following cartesian coordinates:
            Coordinates               Weight
  0.000000  0.000000  0.000000      1.000000
 


--------------------------------------------------------------------------------------------------------




 Dimension of arrays:
   k-points           NKPTS =      1   k-points in BZ     NKDIM =      1   number of bands    NBANDS=     32
   number of dos      NEDOS =    301   number of ions     NIONS =     13
   non local maximal  LDIM  =      4   non local SUM 2l+1 LMDIM =      8
   total plane-waves  NPLWV = ******
   max r-space proj   IRMAX =      1   max aug-charges    IRDMAX=   9667
   dimension x,y,z NGX =   240 NGY =  240 NGZ =  240
   dimension x,y,z NGXF=   480 NGYF=  480 NGZF=  480
   support grid    NGXF=   480 NGYF=  480 NGZF=  480
   ions per type =               3   7   1   2
   NGX,Y,Z   is equivalent  to a cutoff of  18.14, 18.14, 18.14 a.u.
   NGXF,Y,Z  is equivalent  to a cutoff of  36.27, 36.27, 36.27 a.u.

 SYSTEM =  unknown system                          
 POSCAR =   C  H  N  O                             

 Startparameter for this run:
   NWRITE =      2    write-flag & timer
   PREC   = accura    normal or accurate (medium, high low for compatibility)
   ISTART =      0    job   : 0-new  1-cont  2-samecut
   ICHARG =      2    charge: 1-file 2-atom 10-const
   ISPIN  =      1    spin polarized calculation?
   LNONCOLLINEAR =      F non collinear calculations
   LSORBIT =      F    spin-orbit coupling
   INIWAV =      1    electr: 0-lowe 1-rand  2-diag
   LASPH  =      F    aspherical Exc in radial PAW
 Electronic Relaxation 1
   ENCUT  = 1000.0 eV  73.50 Ry    8.57 a.u.  56.73 56.73 56.73*2*pi/ulx,y,z
   ENINI  = 1000.0     initial cutoff
   ENAUG  = 1000.0 eV  augmentation charge cutoff
   NELM   =     60;   NELMIN=  2; NELMDL= -5     # of ELM steps 
   EDIFF  = 0.1E-06   stopping-criterion for ELM
   LREAL  =      F    real-space projection
   NLSPLINE    = F    spline interpolate recip. space projectors
   LCOMPAT=      F    compatible to vasp.4.4
   GGA_COMPAT  = T    GGA compatible to vasp.4.4-vasp.4.6
   LMAXPAW     = -100 max onsite density
   LMAXMIX     =    2 max onsite mixed and CHGCAR
   VOSKOWN=      0    Vosko Wilk Nusair interpolation
   ROPT   =    0.00000   0.00000   0.00000   0.00000
 Ionic relaxation
   EDIFFG = 0.1E-05   stopping-criterion for IOM
   NSW    =      0    number of steps for IOM
   NBLOCK =      1;   KBLOCK =      1    inner block; outer block 
   IBRION =     -1    ionic relax: 0-MD 1-quasi-New 2-CG
   NFREE  =      0    steps in history (QN), initial steepest desc. (CG)
   ISIF   =      0    stress and relaxation
   IWAVPR =     10    prediction:  0-non 1-charg 2-wave 3-comb
   ISYM   =      2    0-nonsym 1-usesym 2-fastsym
   LCORR  =      T    Harris-Foulkes like correction to forces

   POTIM  = 0.5000    time-step for ionic-motion
   TEIN   =    0.0    initial temperature
   TEBEG  =    0.0;   TEEND  =   0.0 temperature during run
   SMASS  =  -3.00    Nose mass-parameter (am)
   estimated Nose-frequenzy (Omega)   =  0.10E-29 period in steps = 0.13E+47 mass=  -0.111E-25a.u.
   SCALEE = 1.0000    scale energy and forces
   NPACO  =    256;   APACO  = 10.0  distance and # of slots for P.C.
   PSTRESS=    0.0 pullay stress

  Mass of Ions in am
   POMASS =  12.01  1.00 14.00 16.00
  Ionic Valenz
   ZVAL   =   4.00  1.00  5.00  6.00
  Atomic Wigner-Seitz radii
   RWIGS  =  -1.00 -1.00 -1.00 -1.00
  virtual crystal weights 
   VCA    =   1.00  1.00  1.00  1.00
   NELECT =      36.0000    total number of electrons
   NUPDOWN=      -1.0000    fix difference up-down

 DOS related values:
   EMIN   =  10.00;   EMAX   =-10.00  energy-range for DOS
   EFERMI =   0.00;   METHOD = LEGACY      
   ISMEAR =     0;   SIGMA  =   0.01  broadening in eV -4-tet -1-fermi 0-gaus

 Electronic relaxation 2 (details)
   IALGO  =     58    algorithm
   LDIAG  =      T    sub-space diagonalisation (order eigenvalues)
   LSUBROT=      F    optimize rotation matrix (better conditioning)
   TURBO    =      0    0=normal 1=particle mesh
   IRESTART =      0    0=no restart 2=restart with 2 vectors
   NREBOOT  =      0    no. of reboots
   NMIN     =      0    reboot dimension
   EREF     =   0.00    reference energy to select bands
   IMIX   =      4    mixing-type and parameters
     AMIX     =   0.40;   BMIX     =  1.00
     AMIX_MAG =   1.60;   BMIX_MAG =  1.00
     AMIN     =   0.10
     WC   =   100.;   INIMIX=   1;  MIXPRE=   1;  MAXMIX= -45

 Intra band minimization:
   WEIMIN = 0.0000     energy-eigenvalue tresh-hold
   EBREAK =  0.78E-09  absolut break condition
   DEPER  =   0.30     relativ break condition  

   TIME   =   0.40     timestep for ELM

  volume/ion in A,a.u.               =     819.08      5527.40
  Fermi-wavevector in a.u.,A,eV,Ry     =   0.245708  0.464321  0.821418  0.060373
  Thomas-Fermi vector in A             =   1.056973

 Write flags
   LWAVE        =      F    write WAVECAR
   LDOWNSAMPLE  =      F    k-point downsampling of WAVECAR
   LCHARG       =      F    write CHGCAR
   LVTOT        =      F    write LOCPOT, total local potential
   LVHAR        =      F    write LOCPOT, Hartree potential only
   LELF         =      F    write electronic localiz. function (ELF)
   LORBIT       =      0    0 simple, 1 ext, 2 COOP (PROOUT), +10 PAW based schemes


 Dipole corrections
   LMONO  =      F    monopole corrections only (constant potential shift)
   LDIPOL =      F    correct potential (dipole corrections)
   IDIPOL =      0    1-x, 2-y, 3-z, 4-all directions 
   EPSILON=  1.0000000 bulk dielectric constant

 Exchange correlation treatment:
   GGA     =    PE    GGA type
   LEXCH   =     8    internal setting for exchange type
   LIBXC   =     F    Libxc                    
   VOSKOWN =     0    Vosko Wilk Nusair interpolation
   LHFCALC =     F    Hartree Fock is set to
   LHFONE  =     F    Hartree Fock one center treatment
   AEXX    =    0.0000 exact exchange contribution

 Linear response parameters
   LEPSILON=     F    determine dielectric tensor
   LRPA    =     F    only Hartree local field effects (RPA)
   LNABLA  =     F    use nabla operator in PAW spheres
   LVEL    =     F    velocity operator in full k-point grid
   CSHIFT  =0.1000    complex shift for real part using Kramers Kronig
   OMEGAMAX=  -1.0    maximum frequency
   DEG_THRESHOLD= 0.2000000E-02 threshold for treating states as degnerate
   RTIME   =   -0.100 relaxation time in fs
  (WPLASMAI=    0.000 imaginary part of plasma frequency in eV, 0.658/RTIME)
   DFIELD  = 0.0000000 0.0000000 0.0000000 field for delta impulse in time

  Optional k-point grid parameters
   LKPOINTS_OPT  =     F    use optional k-point grid
   KPOINTS_OPT_MODE=     1    mode for optional k-point grid

 Orbital magnetization related:
   ORBITALMAG=     F  switch on orbital magnetization
   LCHIMAG   =     F  perturbation theory with respect to B field
   DQ        =  0.001000  dq finite difference perturbation B field
   LLRAUG    =     F  two centre corrections for induced B field
   LBONE     =     F  B-component reconstruction in AE one-centre
   LVGVCALC  =     T  calculate vGv susceptibility
   LVGVAPPL  =     F  apply vGv susceptibility instead of pGv for G=0

 Random number generation:
   RANDOM_GENERATOR = DEFAULT
   PCG_SEED         = not used


--------------------------------------------------------------------------------------------------------


 Static calculation
 charge density and potential will be updated during run
 non-spin polarized calculation
 Conjugate gradient for all bands (Freysoldt, et al. PRB 79, 241103 (2009))
 preconditioned conjugated gradient                                        
 perform sub-space diagonalisation
    before iterative eigenvector-optimisation
 modified Broyden-mixing scheme, WC =      100.0
 initial mixing is a Kerker type mixing with AMIX =  0.4000 and BMIX =      1.0000
 Hartree-type preconditioning will be used
 using additional bands           14
 reciprocal scheme for non local part
 use partial core corrections
 no Harris-corrections to forces 
 use gradient corrections 
 use of overlap-Matrix (Vanderbilt PP)
 Gauss-broadening in eV      SIGMA  =   0.01


--------------------------------------------------------------------------------------------------------


  energy-cutoff  :     1000.00
  volume of cell :    10648.00
      direct lattice vectors                 reciprocal lattice vectors
    22.000000000  0.000000000  0.000000000     0.045454545  0.000000000  0.000000000
     0.000000000 22.000000000  0.000000000     0.000000000  0.045454545  0.000000000
     0.000000000  0.000000000 22.000000000     0.000000000  0.000000000  0.045454545

  length of vectors
    22.000000000 22.000000000 22.000000000     0.045454545  0.045454545  0.045454545



 k-points in units of 2pi/SCALE and weight: auto                                    
   0.00000000  0.00000000  0.00000000       1.000

 k-points in reciprocal lattice and weights: auto                                    
   0.00000000  0.00000000  0.00000000       1.000

 position of ions in fractional coordinates (direct lattice) 
   0.46379659  0.55412318  0.50702682
   0.55341205  0.49410955  0.50407955
   0.57116341  0.42818455  0.49598727
   0.37927295  0.59128773  0.50182182
   0.38096250  0.51305727  0.49121318
   0.56786659  0.51219682  0.54824091
   0.57267205  0.52330409  0.46854227
   0.62072705  0.42373500  0.49843136
   0.55109568  0.39984136  0.53168636
   0.55605250  0.41096955  0.45175909
   0.40165886  0.55142409  0.50568318
   0.49361250  0.60015864  0.51425136
   0.48755114  0.49708091  0.50060227

 position of ions in cartesian coordinates  (Angst):
  10.20352500 12.19071000 11.15459000
  12.17506500 10.87041000 11.08975000
  12.56559500  9.42006000 10.91172000
   8.34400500 13.00833000 11.04008000
   8.38117500 11.28726000 10.80669000
  12.49306500 11.26833000 12.06130000
  12.59878500 11.51269000 10.30793000
  13.65599500  9.32217000 10.96549000
  12.12410500  8.79651000 11.69710000
  12.23315500  9.04133000  9.93870000
   8.83649500 12.13133000 11.12503000
  10.85947500 13.20349000 11.31353000
  10.72612500 10.93578000 11.01325000



--------------------------------------------------------------------------------------------------------


 use parallel FFT for orbitals z direction half grid
 k-point   1 :   0.0000 0.0000 0.0000  plane waves:  381993

 maximum and minimum number of plane-waves per node :     11948    11928

 maximum number of plane-waves:    381993
 maximum index in each direction: 
   IXMAX=   56   IYMAX=   56   IZMAX=   56
   IXMIN=  -56   IYMIN=  -56   IZMIN=    0


 parallel 3D FFT for wavefunctions:
    minimum data exchange during FFTs selected (reduces bandwidth)
 parallel 3D FFT for charge:
    minimum data exchange during FFTs selected (reduces bandwidth)


 total amount of memory used by VASP MPI-rank0   114458. kBytes
=======================================================================

   base      :      30000. kBytes
   nonl-proj :       5538. kBytes
   fftplans  :      24880. kBytes
   grid      :      51747. kBytes
   one-center:          1. kBytes
   wavefun   :       2292. kBytes

     INWAV:  cpu time      0.0001: real time      0.0002
 Broyden mixing: mesh for mixing (old mesh)
   NGX =113   NGY =113   NGZ =113
  (NGX  =480   NGY  =480   NGZ  =480)
  gives a total of ****** points

 initial charge density was supplied:
 charge density of overlapping atoms calculated
 number of electron      36.0000000 magnetization 
 keeping initial charge density in first step


--------------------------------------------------------------------------------------------------------


 Maximum index for augmentation-charges          207 (set IRDMAX)


--------------------------------------------------------------------------------------------------------


 First call to EWALD:  gamma=   0.081
 Maximum number of real-space cells 3x 3x 3
 Maximum number of reciprocal cells 3x 3x 3

    FEWALD:  cpu time      0.0059: real time      0.0059


--------------------------------------- Ionic step        1  -------------------------------------------




--------------------------------------- Iteration      1(   1)  ---------------------------------------


    POTLOK:  cpu time      0.6132: real time      0.6141
    SETDIJ:  cpu time      0.0084: real time      0.0090
    TRIAL :  cpu time      0.8954: real time      0.8971
    CORREC:  cpu time      0.0027: real time      0.0027
    --------------------------------------------
      LOOP:  cpu time      1.5230: real time      1.5603

 eigenvalue-minimisations  :    80
 total energy-change (2. order) : 0.3542244E+03  (-0.9458900E+03)
 number of electron      36.0000000 magnetization 
 augmentation part       36.0000000 magnetization 

 Free energy of the ion-electron system (eV)
  ---------------------------------------------------
  alpha Z        PSCENC =         0.35173684
  Ewald energy   TEWEN  =      2549.12670408
  -Hartree energ DENC   =     -3773.64700077
  -exchange      EXHF   =         0.00000000
  -V(xc)+E(xc)   XCENC  =       106.76327416
  PAW double counting   =      1250.26313533    -1235.62670127
  entropy T*S    EENTRO =        -0.00007176
  eigenvalues    EBANDS =      -201.14375951
  atomic energy  EATOM  =      1658.13713092
  ---------------------------------------------------
  free energy    TOTEN  =       354.22444801 eV

  energy without entropy =      354.22451977  energy(sigma->0) =      354.22448389


--------------------------------------------------------------------------------------------------------




--------------------------------------- Iteration      1(   2)  ---------------------------------------


    TRIAL :  cpu time      1.1166: real time      1.1169
    CORREC:  cpu time      0.0001: real time      0.0001
    --------------------------------------------
      LOOP:  cpu time      1.1348: real time      1.1476

 eigenvalue-minimisations  :   112
 total energy-change (2. order) :-0.1928721E+03  (-0.1895554E+03)
 number of electron      36.0000000 magnetization 
 augmentation part       36.0000000 magnetization 

 Free energy of the ion-electron system (eV)
  ---------------------------------------------------
  alpha Z        PSCENC =         0.35173684
  Ewald energy   TEWEN  =      2549.12670408
  -Hartree energ DENC   =     -3773.64700077
  -exchange      EXHF   =         0.00000000
  -V(xc)+E(xc)   XCENC  =       106.76327416
  PAW double counting   =      1250.26313533    -1235.62670127
  entropy T*S    EENTRO =        -0.00000000
  eigenvalues    EBANDS =      -394.01594269
  atomic energy  EATOM  =      1658.13713092
  ---------------------------------------------------
  free energy    TOTEN  =       161.35233659 eV

  energy without entropy =      161.35233659  energy(sigma->0) =      161.35233659


--------------------------------------------------------------------------------------------------------




--------------------------------------- Iteration      1(   3)  ---------------------------------------


    TRIAL :  cpu time      1.1759: real time      1.1768
    CORREC:  cpu time      0.0002: real time      0.0001
    --------------------------------------------
      LOOP:  cpu time      1.1919: real time      1.2110

 eigenvalue-minimisations  :   120
 total energy-change (2. order) :-0.1754832E+03  (-0.1727572E+03)
 number of electron      36.0000000 magnetization 
 augmentation part       36.0000000 magnetization 

 Free energy of the ion-electron system (eV)
  ---------------------------------------------------
  alpha Z        PSCENC =         0.35173684
  Ewald energy   TEWEN  =      2549.12670408
  -Hartree energ DENC   =     -3773.64700077
  -exchange      EXHF   =         0.00000000
  -V(xc)+E(xc)   XCENC  =       106.76327416
  PAW double counting   =      1250.26313533    -1235.62670127
  entropy T*S    EENTRO =        -0.00000000
  eigenvalues    EBANDS =      -569.49911254
  atomic energy  EATOM  =      1658.13713092
  ---------------------------------------------------
  free energy    TOTEN  =       -14.13083326 eV

  energy without entropy =      -14.13083326  energy(sigma->0) =      -14.13083326


--------------------------------------------------------------------------------------------------------




--------------------------------------- Iteration      1(   4)  ---------------------------------------


    TRIAL :  cpu time      0.8688: real time      0.8692
    CORREC:  cpu time      0.0002: real time      0.0002
    --------------------------------------------
      LOOP:  cpu time      0.8989: real time      0.8993

 eigenvalue-minimisations  :    80
 total energy-change (2. order) :-0.6332929E+02  (-0.6318877E+02)
 number of electron      36.0000000 magnetization 
 augmentation part       36.0000000 magnetization 

 Free energy of the ion-electron system (eV)
  ---------------------------------------------------
  alpha Z        PSCENC =         0.35173684
  Ewald energy   TEWEN  =      2549.12670408
  -Hartree energ DENC   =     -3773.64700077
  -exchange      EXHF   =         0.00000000
  -V(xc)+E(xc)   XCENC  =       106.76327416
  PAW double counting   =      1250.26313533    -1235.62670127
  entropy T*S    EENTRO =        -0.00000000
  eigenvalues    EBANDS =      -632.82839926
  atomic energy  EATOM  =      1658.13713092
  ---------------------------------------------------
  free energy    TOTEN  =       -77.46011997 eV

  energy without entropy =      -77.46011997  energy(sigma->0) =      -77.46011997


--------------------------------------------------------------------------------------------------------




--------------------------------------- Iteration      1(   5)  ---------------------------------------


    TRIAL :  cpu time      0.8681: real time      0.8686
    CORREC:  cpu time      0.0001: real time      0.0001
    CHARGE:  cpu time      0.2384: real time      0.2390
    --------------------------------------------
      LOOP:  cpu time      1.1215: real time      1.1375

 eigenvalue-minimisations  :    80
 total energy-change (2. order) :-0.5548686E+01  (-0.5502551E+01)
 number of electron      36.0000000 magnetization 
 augmentation part        0.1620663 magnetization 

 Free energy of the ion-electron system (eV)
  ---------------------------------------------------
  alpha Z        PSCENC =         0.35173684
  Ewald energy   TEWEN  =      2549.12670408
  -Hartree energ DENC   =     -3773.64700077
  -exchange      EXHF   =         0.00000000
  -V(xc)+E(xc)   XCENC  =       106.76327416
  PAW double counting   =      1250.26313533    -1235.62670127
  entropy T*S    EENTRO =        -0.00000000
  eigenvalues    EBANDS =      -638.37708547
  atomic energy  EATOM  =      1658.13713092
  ---------------------------------------------------
  free energy    TOTEN  =       -83.00880619 eV

  energy without entropy =      -83.00880619  energy(sigma->0) =      -83.00880619


--------------------------------------------------------------------------------------------------------




--------------------------------------- Iteration      1(   6)  ---------------------------------------


    POTLOK:  cpu time      0.6235: real time      0.6241
    SETDIJ:  cpu time      0.0041: real time      0.0041
    TRIAL :  cpu time      0.5253: real time      0.5266
    CORREC:  cpu time      0.9831: real time      0.9845
    CHARGE:  cpu time      0.2001: real time      0.2003
    --------------------------------------------
      LOOP:  cpu time      2.3496: real time      2.3712

 eigenvalue-minimisations  :     0
 total energy-change (2. order) : 0.1550562E+02  (-0.6634551E+01)
 number of electron      36.0000000 magnetization 
 augmentation part        0.1177555 magnetization 

 Free energy of the ion-electron system (eV)
  ---------------------------------------------------
  alpha Z        PSCENC =         0.35173684
  Ewald energy   TEWEN  =      2549.12670408
  -Hartree energ DENC   =     -4064.62989851
  -exchange      EXHF   =         0.00000000
  -V(xc)+E(xc)   XCENC  =       120.18498807
  PAW double counting   =     13665.96214496   -13653.33320939
  entropy T*S    EENTRO =        -0.00000000
  eigenvalues    EBANDS =      -343.30278662
  atomic energy  EATOM  =      1658.13713092
  ---------------------------------------------------
  free energy    TOTEN  =       -67.50318967 eV

  energy without entropy =      -67.50318967  energy(sigma->0) =      -67.50318967


--------------------------------------------------------------------------------------------------------




--------------------------------------- Iteration      1(   7)  ---------------------------------------


    POTLOK:  cpu time      0.6237: real time      0.6238
    SETDIJ:  cpu time      0.0075: real time      0.0075
    TRIAL :  cpu time      0.5119: real time      0.5123
    CORREC:  cpu time      0.9731: real time      0.9738
    CHARGE:  cpu time      0.1995: real time      0.1996
    --------------------------------------------
      LOOP:  cpu time      2.3525: real time      2.3542

 eigenvalue-minimisations  :     0
 total energy-change (2. order) :-0.6698407E+01  (-0.8020272E+00)
 number of electron      36.0000000 magnetization 
 augmentation part        0.0923785 magnetization 

 Free energy of the ion-electron system (eV)
  ---------------------------------------------------
  alpha Z        PSCENC =         0.35173684
  Ewald energy   TEWEN  =      2549.12670408
  -Hartree energ DENC   =     -3930.44614745
  -exchange      EXHF   =         0.00000000
  -V(xc)+E(xc)   XCENC  =       114.26883802
  PAW double counting   =     16720.82179045   -16707.25033948
  entropy T*S    EENTRO =        -0.00000000
  eigenvalues    EBANDS =      -479.21131054
  atomic energy  EATOM  =      1658.13713092
  ---------------------------------------------------
  free energy    TOTEN  =       -74.20159716 eV

  energy without entropy =      -74.20159716  energy(sigma->0) =      -74.20159716


--------------------------------------------------------------------------------------------------------




--------------------------------------- Iteration      1(   8)  ---------------------------------------


    POTLOK:  cpu time      0.6223: real time      0.6229
    SETDIJ:  cpu time      0.0059: real time      0.0059
    TRIAL :  cpu time      0.5105: real time      0.5106
    CORREC:  cpu time      0.9774: real time      0.9779
    CHARGE:  cpu time      0.1999: real time      0.2000
    --------------------------------------------
      LOOP:  cpu time      2.3302: real time      2.3477

 eigenvalue-minimisations  :     0
 total energy-change (2. order) :-0.8066471E+00  (-0.3407954E+00)
 number of electron      36.0000000 magnetization 
 augmentation part        0.0869452 magnetization 

 Free energy of the ion-electron system (eV)
  ---------------------------------------------------
  alpha Z        PSCENC =         0.35173684
  Ewald energy   TEWEN  =      2549.12670408
  -Hartree energ DENC   =     -3936.65327685
  -exchange      EXHF   =         0.00000000
  -V(xc)+E(xc)   XCENC  =       114.39920319
  PAW double counting   =     16852.06638067   -16838.37474510
  entropy T*S    EENTRO =        -0.00000000
  eigenvalues    EBANDS =      -474.06137800
  atomic energy  EATOM  =      1658.13713092
  ---------------------------------------------------
  free energy    TOTEN  =       -75.00824425 eV

  energy without entropy =      -75.00824425  energy(sigma->0) =      -75.00824425


--------------------------------------------------------------------------------------------------------




--------------------------------------- Iteration      1(   9)  ---------------------------------------


    POTLOK:  cpu time      0.6218: real time      0.6219
    SETDIJ:  cpu time      0.0083: real time      0.0083
    TRIAL :  cpu time      0.5105: real time      0.5111
    CORREC:  cpu time      0.9697: real time      0.9707
    CHARGE:  cpu time      0.1991: real time      0.1992
    --------------------------------------------
      LOOP:  cpu time      2.3281: real time      2.3463

 eigenvalue-minimisations  :     0
 total energy-change (2. order) :-0.3390722E+00  (-0.1519890E+00)
 number of electron      36.0000000 magnetization 
 augmentation part        0.0870004 magnetization 

 Free energy of the ion-electron system (eV)
  ---------------------------------------------------
  alpha Z        PSCENC =         0.35173684
  Ewald energy   TEWEN  =      2549.12670408
  -Hartree energ DENC   =     -3936.96494032
  -exchange      EXHF   =         0.00000000
  -V(xc)+E(xc)   XCENC  =       114.34064944
  PAW double counting   =     17155.39758099   -17141.63624186
  entropy T*S    EENTRO =        -0.00000000
  eigenvalues    EBANDS =      -474.09993655
  atomic energy  EATOM  =      1658.13713092
  ---------------------------------------------------
  free energy    TOTEN  =       -75.34731648 eV

  energy without entropy =      -75.34731648  energy(sigma->0) =      -75.34731648


--------------------------------------------------------------------------------------------------------




--------------------------------------- Iteration      1(  10)  ---------------------------------------


    POTLOK:  cpu time      0.6206: real time      0.6208
    SETDIJ:  cpu time      0.0051: real time      0.0051
    TRIAL :  cpu time      0.5109: real time      0.5114
    CORREC:  cpu time      0.9690: real time      0.9697
    CHARGE:  cpu time      0.1992: real time      0.1994
    --------------------------------------------
      LOOP:  cpu time      2.3401: real time      2.3417

 eigenvalue-minimisations  :     0
 total energy-change (2. order) :-0.1497873E+00  (-0.5077709E-01)
 number of electron      36.0000000 magnetization 
 augmentation part        0.0897285 magnetization 

 Free energy of the ion-electron system (eV)
  ---------------------------------------------------
  alpha Z        PSCENC =         0.35173684
  Ewald energy   TEWEN  =      2549.12670408
  -Hartree energ DENC   =     -3932.07551835
  -exchange      EXHF   =         0.00000000
  -V(xc)+E(xc)   XCENC  =       114.20782067
  PAW double counting   =     16820.12460648   -16806.35004298
  entropy T*S    EENTRO =        -0.00000000
  eigenvalues    EBANDS =      -479.01954140
  atomic energy  EATOM  =      1658.13713092
  ---------------------------------------------------
  free energy    TOTEN  =       -75.49710374 eV

  energy without entropy =      -75.49710374  energy(sigma->0) =      -75.49710374


--------------------------------------------------------------------------------------------------------




--------------------------------------- Iteration      1(  11)  ---------------------------------------


    POTLOK:  cpu time      0.6211: real time      0.6217
    SETDIJ:  cpu time      0.0042: real time      0.0042
    TRIAL :  cpu time      0.5113: real time      0.5114
    CORREC:  cpu time      0.9670: real time      0.9675
    CHARGE:  cpu time      0.1999: real time      0.2000
    --------------------------------------------
      LOOP:  cpu time      2.3190: real time      2.3352

 eigenvalue-minimisations  :     0
 total energy-change (2. order) :-0.5054960E-01  (-0.1698471E-01)
 number of electron      36.0000000 magnetization 
 augmentation part        0.0912656 magnetization 

 Free energy of the ion-electron system (eV)
  ---------------------------------------------------
  alpha Z        PSCENC =         0.35173684
  Ewald energy   TEWEN  =      2549.12670408
  -Hartree energ DENC   =     -3930.66721218
  -exchange      EXHF   =         0.00000000
  -V(xc)+E(xc)   XCENC  =       114.18427882
  PAW double counting   =     16478.05381858   -16464.30553399
  entropy T*S    EENTRO =        -0.00000000
  eigenvalues    EBANDS =      -480.42857639
  atomic energy  EATOM  =      1658.13713092
  ---------------------------------------------------
  free energy    TOTEN  =       -75.54765334 eV

  energy without entropy =      -75.54765334  energy(sigma->0) =      -75.54765334


--------------------------------------------------------------------------------------------------------




--------------------------------------- Iteration      1(  12)  ---------------------------------------


    POTLOK:  cpu time      0.6204: real time      0.6205
    SETDIJ:  cpu time      0.0059: real time      0.0059
    TRIAL :  cpu time      0.5144: real time      0.5149
    CORREC:  cpu time      0.9687: real time      0.9694
    CHARGE:  cpu time      0.1995: real time      0.1996
    --------------------------------------------
      LOOP:  cpu time      2.3218: real time      2.3414

 eigenvalue-minimisations  :     0
 total energy-change (2. order) :-0.1695335E-01  (-0.5164516E-02)
 number of electron      36.0000000 magnetization 
 augmentation part        0.0915737 magnetization 

 Free energy of the ion-electron system (eV)
  ---------------------------------------------------
  alpha Z        PSCENC =         0.35173684
  Ewald energy   TEWEN  =      2549.12670408
  -Hartree energ DENC   =     -3930.54893095
  -exchange      EXHF   =         0.00000000
  -V(xc)+E(xc)   XCENC  =       114.16493816
  PAW double counting   =     16376.70232572   -16362.96814958
  entropy T*S    EENTRO =        -0.00000000
  eigenvalues    EBANDS =      -480.53036186
  atomic energy  EATOM  =      1658.13713092
  ---------------------------------------------------
  free energy    TOTEN  =       -75.56460669 eV

  energy without entropy =      -75.56460669  energy(sigma->0) =      -75.56460669


--------------------------------------------------------------------------------------------------------




--------------------------------------- Iteration      1(  13)  ---------------------------------------


    POTLOK:  cpu time      0.6193: real time      0.6195
    SETDIJ:  cpu time      0.0086: real time      0.0086
    TRIAL :  cpu time      0.5114: real time      0.5120
    CORREC:  cpu time      0.9655: real time      0.9660
    CHARGE:  cpu time      0.2007: real time      0.2009
    --------------------------------------------
      LOOP:  cpu time      2.3184: real time      2.3373

 eigenvalue-minimisations  :     0
 total energy-change (2. order) :-0.5167203E-02  (-0.1796046E-02)
 number of electron      36.0000000 magnetization 
 augmentation part        0.0916891 magnetization 

 Free energy of the ion-electron system (eV)
  ---------------------------------------------------
  alpha Z        PSCENC =         0.35173684
  Ewald energy   TEWEN  =      2549.12670408
  -Hartree energ DENC   =     -3930.38666697
  -exchange      EXHF   =         0.00000000
  -V(xc)+E(xc)   XCENC  =       114.15298845
  PAW double counting   =     16391.88340947   -16378.15279660
  entropy T*S    EENTRO =        -0.00000000
  eigenvalues    EBANDS =      -480.68228007
  atomic energy  EATOM  =      1658.13713092
  ---------------------------------------------------
  free energy    TOTEN  =       -75.56977389 eV

  energy without entropy =      -75.56977389  energy(sigma->0) =      -75.56977389


--------------------------------------------------------------------------------------------------------




--------------------------------------- Iteration      1(  14)  ---------------------------------------


    POTLOK:  cpu time      0.6159: real time      0.6164
    SETDIJ:  cpu time      0.0062: real time      0.0062
    TRIAL :  cpu time      0.5100: real time      0.5101
    CORREC:  cpu time      0.9571: real time      0.9578
    CHARGE:  cpu time      0.1998: real time      0.1999
    --------------------------------------------
      LOOP:  cpu time      2.3039: real time      2.3208

 eigenvalue-minimisations  :     0
 total energy-change (2. order) :-0.1799247E-02  (-0.6765555E-03)
 number of electron      36.0000000 magnetization 
 augmentation part        0.0917606 magnetization 

 Free energy of the ion-electron system (eV)
  ---------------------------------------------------
  alpha Z        PSCENC =         0.35173684
  Ewald energy   TEWEN  =      2549.12670408
  -Hartree energ DENC   =     -3930.26820776
  -exchange      EXHF   =         0.00000000
  -V(xc)+E(xc)   XCENC  =       114.14745321
  PAW double counting   =     16426.14337400   -16412.41339030
  entropy T*S    EENTRO =        -0.00000000
  eigenvalues    EBANDS =      -480.79637411
  atomic energy  EATOM  =      1658.13713092
  ---------------------------------------------------
  free energy    TOTEN  =       -75.57157314 eV

  energy without entropy =      -75.57157314  energy(sigma->0) =      -75.57157314


--------------------------------------------------------------------------------------------------------




--------------------------------------- Iteration      1(  15)  ---------------------------------------


    POTLOK:  cpu time      0.6106: real time      0.6107
    SETDIJ:  cpu time      0.0037: real time      0.0037
    TRIAL :  cpu time      0.5104: real time      0.5112
    CORREC:  cpu time      0.9508: real time      0.9514
    CHARGE:  cpu time      0.1998: real time      0.1999
    --------------------------------------------
      LOOP:  cpu time      2.3099: real time      2.3118

 eigenvalue-minimisations  :     0
 total energy-change (2. order) :-0.6776376E-03  (-0.2768371E-03)
 number of electron      36.0000000 magnetization 
 augmentation part        0.0918335 magnetization 

 Free energy of the ion-electron system (eV)
  ---------------------------------------------------
  alpha Z        PSCENC =         0.35173684
  Ewald energy   TEWEN  =      2549.12670408
  -Hartree energ DENC   =     -3930.46449428
  -exchange      EXHF   =         0.00000000
  -V(xc)+E(xc)   XCENC  =       114.15286311
  PAW double counting   =     16442.06945557   -16428.33975498
  entropy T*S    EENTRO =        -0.00000000
  eigenvalues    EBANDS =      -480.60589203
  atomic energy  EATOM  =      1658.13713092
  ---------------------------------------------------
  free energy    TOTEN  =       -75.57225078 eV

  energy without entropy =      -75.57225078  energy(sigma->0) =      -75.57225078


--------------------------------------------------------------------------------------------------------




--------------------------------------- Iteration      1(  16)  ---------------------------------------


    POTLOK:  cpu time      0.6111: real time      0.6112
    SETDIJ:  cpu time      0.0018: real time      0.0018
    TRIAL :  cpu time      0.5138: real time      0.5143
    CORREC:  cpu time      0.9427: real time      0.9434
    CHARGE:  cpu time      0.1993: real time      0.1994
    --------------------------------------------
      LOOP:  cpu time      2.2840: real time      2.3020

 eigenvalue-minimisations  :     0
 total energy-change (2. order) :-0.2775880E-03  (-0.1129080E-03)
 number of electron      36.0000000 magnetization 
 augmentation part        0.0918656 magnetization 

 Free energy of the ion-electron system (eV)
  ---------------------------------------------------
  alpha Z        PSCENC =         0.35173684
  Ewald energy   TEWEN  =      2549.12670408
  -Hartree energ DENC   =     -3930.56455766
  -exchange      EXHF   =         0.00000000
  -V(xc)+E(xc)   XCENC  =       114.15561545
  PAW double counting   =     16437.98444861   -16424.25469753
  entropy T*S    EENTRO =        -0.00000000
  eigenvalues    EBANDS =      -480.50890906
  atomic energy  EATOM  =      1658.13713092
  ---------------------------------------------------
  free energy    TOTEN  =       -75.57252836 eV

  energy without entropy =      -75.57252836  energy(sigma->0) =      -75.57252836


--------------------------------------------------------------------------------------------------------




--------------------------------------- Iteration      1(  17)  ---------------------------------------


    POTLOK:  cpu time      0.5947: real time      0.5953
    SETDIJ:  cpu time      0.0047: real time      0.0047
    TRIAL :  cpu time      0.5123: real time      0.5124
    CORREC:  cpu time      0.9409: real time      0.9415
    CHARGE:  cpu time      0.1998: real time      0.1999
    --------------------------------------------
      LOOP:  cpu time      2.2696: real time      2.2841

 eigenvalue-minimisations  :     0
 total energy-change (2. order) :-0.1133059E-03  (-0.4206260E-04)
 number of electron      36.0000000 magnetization 
 augmentation part        0.0919355 magnetization 

 Free energy of the ion-electron system (eV)
  ---------------------------------------------------
  alpha Z        PSCENC =         0.35173684
  Ewald energy   TEWEN  =      2549.12670408
  -Hartree energ DENC   =     -3930.55705969
  -exchange      EXHF   =         0.00000000
  -V(xc)+E(xc)   XCENC  =       114.15443487
  PAW double counting   =     16428.72808071   -16414.99785796
  entropy T*S    EENTRO =        -0.00000000
  eigenvalues    EBANDS =      -480.51581144
  atomic energy  EATOM  =      1658.13713092
  ---------------------------------------------------
  free energy    TOTEN  =       -75.57264167 eV

  energy without entropy =      -75.57264167  energy(sigma->0) =      -75.57264167


--------------------------------------------------------------------------------------------------------




--------------------------------------- Iteration      1(  18)  ---------------------------------------


    POTLOK:  cpu time      0.5943: real time      0.5947
    SETDIJ:  cpu time      0.0030: real time      0.0030
    TRIAL :  cpu time      0.5093: real time      0.5096
    CORREC:  cpu time      0.9398: real time      0.9404
    CHARGE:  cpu time      0.2001: real time      0.2007
    --------------------------------------------
      LOOP:  cpu time      2.2595: real time      2.2787

 eigenvalue-minimisations  :     0
 total energy-change (2. order) :-0.4208236E-04  (-0.1559633E-04)
 number of electron      36.0000000 magnetization 
 augmentation part        0.0918805 magnetization 

 Free energy of the ion-electron system (eV)
  ---------------------------------------------------
  alpha Z        PSCENC =         0.35173684
  Ewald energy   TEWEN  =      2549.12670408
  -Hartree energ DENC   =     -3930.65781074
  -exchange      EXHF   =         0.00000000
  -V(xc)+E(xc)   XCENC  =       114.15899259
  PAW double counting   =     16424.15445960   -16410.42483701
  entropy T*S    EENTRO =        -0.00000000
  eigenvalues    EBANDS =      -480.41906003
  atomic energy  EATOM  =      1658.13713092
  ---------------------------------------------------
  free energy    TOTEN  =       -75.57268375 eV

  energy without entropy =      -75.57268375  energy(sigma->0) =      -75.57268375


--------------------------------------------------------------------------------------------------------




--------------------------------------- Iteration      1(  19)  ---------------------------------------


    POTLOK:  cpu time      0.5927: real time      0.5928
    SETDIJ:  cpu time      0.0046: real time      0.0046
    TRIAL :  cpu time      0.5100: real time      0.5105
    CORREC:  cpu time      0.9402: real time      0.9409
    CHARGE:  cpu time      0.2005: real time      0.2006
    --------------------------------------------
      LOOP:  cpu time      2.2620: real time      2.2796

 eigenvalue-minimisations  :     0
 total energy-change (2. order) :-0.1555074E-04  (-0.6211919E-05)
 number of electron      36.0000000 magnetization 
 augmentation part        0.0918714 magnetization 

 Free energy of the ion-electron system (eV)
  ---------------------------------------------------
  alpha Z        PSCENC =         0.35173684
  Ewald energy   TEWEN  =      2549.12670408
  -Hartree energ DENC   =     -3930.60581930
  -exchange      EXHF   =         0.00000000
  -V(xc)+E(xc)   XCENC  =       114.15716446
  PAW double counting   =     16426.25323566   -16412.52303663
  entropy T*S    EENTRO =        -0.00000000
  eigenvalues    EBANDS =      -480.46981534
  atomic energy  EATOM  =      1658.13713092
  ---------------------------------------------------
  free energy    TOTEN  =       -75.57269930 eV

  energy without entropy =      -75.57269930  energy(sigma->0) =      -75.57269930


--------------------------------------------------------------------------------------------------------




--------------------------------------- Iteration      1(  20)  ---------------------------------------


    POTLOK:  cpu time      0.5946: real time      0.5952
    SETDIJ:  cpu time      0.0012: real time      0.0012
    TRIAL :  cpu time      0.5116: real time      0.5119
    CORREC:  cpu time      0.9380: real time      0.9384
    CHARGE:  cpu time      0.2003: real time      0.2004
    --------------------------------------------
      LOOP:  cpu time      2.2607: real time      2.2772

 eigenvalue-minimisations  :     0
 total energy-change (2. order) :-0.6102728E-05  (-0.2453018E-05)
 number of electron      36.0000000 magnetization 
 augmentation part        0.0918454 magnetization 

 Free energy of the ion-electron system (eV)
  ---------------------------------------------------
  alpha Z        PSCENC =         0.35173684
  Ewald energy   TEWEN  =      2549.12670408
  -Hartree energ DENC   =     -3930.62721825
  -exchange      EXHF   =         0.00000000
  -V(xc)+E(xc)   XCENC  =       114.15827242
  PAW double counting   =     16428.82013909   -16415.09003553
  entropy T*S    EENTRO =        -0.00000000
  eigenvalues    EBANDS =      -480.44943497
  atomic energy  EATOM  =      1658.13713092
  ---------------------------------------------------
  free energy    TOTEN  =       -75.57270541 eV

  energy without entropy =      -75.57270541  energy(sigma->0) =      -75.57270541


--------------------------------------------------------------------------------------------------------




--------------------------------------- Iteration      1(  21)  ---------------------------------------


    POTLOK:  cpu time      0.5914: real time      0.5917
    SETDIJ:  cpu time      0.0054: real time      0.0054
    TRIAL :  cpu time      0.5110: real time      0.5110
    CORREC:  cpu time      0.9417: real time      0.9424
    CHARGE:  cpu time      0.1989: real time      0.1994
    --------------------------------------------
      LOOP:  cpu time      2.2817: real time      2.2833

 eigenvalue-minimisations  :     0
 total energy-change (2. order) :-0.2374305E-05  (-0.9615234E-06)
 number of electron      36.0000000 magnetization 
 augmentation part        0.0918413 magnetization 

 Free energy of the ion-electron system (eV)
  ---------------------------------------------------
  alpha Z        PSCENC =         0.35173684
  Ewald energy   TEWEN  =      2549.12670408
  -Hartree energ DENC   =     -3930.61232455
  -exchange      EXHF   =         0.00000000
  -V(xc)+E(xc)   XCENC  =       114.15773624
  PAW double counting   =     16430.63272627   -16416.90248647
  entropy T*S    EENTRO =        -0.00000000
  eigenvalues    EBANDS =      -480.46393111
  atomic energy  EATOM  =      1658.13713092
  ---------------------------------------------------
  free energy    TOTEN  =       -75.57270778 eV

  energy without entropy =      -75.57270778  energy(sigma->0) =      -75.57270778


--------------------------------------------------------------------------------------------------------




--------------------------------------- Iteration      1(  22)  ---------------------------------------


    POTLOK:  cpu time      0.5916: real time      0.5918
    SETDIJ:  cpu time      0.0068: real time      0.0068
    TRIAL :  cpu time      0.5102: real time      0.5109
    CORREC:  cpu time      0.9412: real time      0.9419
    CHARGE:  cpu time      0.2003: real time      0.2004
    --------------------------------------------
      LOOP:  cpu time      2.2656: real time      2.2877

 eigenvalue-minimisations  :     0
 total energy-change (2. order) :-0.9213054E-06  (-0.3690689E-06)
 number of electron      36.0000000 magnetization 
 augmentation part        0.0918359 magnetization 

 Free energy of the ion-electron system (eV)
  ---------------------------------------------------
  alpha Z        PSCENC =         0.35173684
  Ewald energy   TEWEN  =      2549.12670408
  -Hartree energ DENC   =     -3930.61272152
  -exchange      EXHF   =         0.00000000
  -V(xc)+E(xc)   XCENC  =       114.15785022
  PAW double counting   =     16430.84397166   -16417.11378185
  entropy T*S    EENTRO =        -0.00000000
  eigenvalues    EBANDS =      -480.46359905
  atomic energy  EATOM  =      1658.13713092
  ---------------------------------------------------
  free energy    TOTEN  =       -75.57270870 eV

  energy without entropy =      -75.57270870  energy(sigma->0) =      -75.57270870


--------------------------------------------------------------------------------------------------------




--------------------------------------- Iteration      1(  23)  ---------------------------------------


    POTLOK:  cpu time      0.5937: real time      0.5938
    SETDIJ:  cpu time      0.0032: real time      0.0032
    TRIAL :  cpu time      0.5114: real time      0.5121
    CORREC:  cpu time      0.9394: real time      0.9401
    CHARGE:  cpu time      0.2009: real time      0.2011
    --------------------------------------------
      LOOP:  cpu time      2.2702: real time      2.2899

 eigenvalue-minimisations  :     0
 total energy-change (2. order) :-0.3595032E-06  (-0.1416328E-06)
 number of electron      36.0000000 magnetization 
 augmentation part        0.0918385 magnetization 

 Free energy of the ion-electron system (eV)
  ---------------------------------------------------
  alpha Z        PSCENC =         0.35173684
  Ewald energy   TEWEN  =      2549.12670408
  -Hartree energ DENC   =     -3930.60806734
  -exchange      EXHF   =         0.00000000
  -V(xc)+E(xc)   XCENC  =       114.15757585
  PAW double counting   =     16430.45211269   -16416.72189844
  entropy T*S    EENTRO =        -0.00000000
  eigenvalues    EBANDS =      -480.46800366
  atomic energy  EATOM  =      1658.13713092
  ---------------------------------------------------
  free energy    TOTEN  =       -75.57270906 eV

  energy without entropy =      -75.57270906  energy(sigma->0) =      -75.57270906


--------------------------------------------------------------------------------------------------------




--------------------------------------- Iteration      1(  24)  ---------------------------------------


    POTLOK:  cpu time      0.5925: real time      0.5930
    SETDIJ:  cpu time      0.0047: real time      0.0047
    TRIAL :  cpu time      0.5116: real time      0.5117
    CORREC:  cpu time      0.9384: real time      0.9391
    CHARGE:  cpu time      0.1997: real time      0.1998
    --------------------------------------------
      LOOP:  cpu time      2.2601: real time      2.2780

 eigenvalue-minimisations  :     0
 total energy-change (2. order) :-0.1381777E-06  (-0.5013770E-07)
 number of electron      36.0000000 magnetization 
 augmentation part        0.0918377 magnetization 

 Free energy of the ion-electron system (eV)
  ---------------------------------------------------
  alpha Z        PSCENC =         0.35173684
  Ewald energy   TEWEN  =      2549.12670408
  -Hartree energ DENC   =     -3930.61074201
  -exchange      EXHF   =         0.00000000
  -V(xc)+E(xc)   XCENC  =       114.15765859
  PAW double counting   =     16429.99009783   -16416.25991964
  entropy T*S    EENTRO =        -0.00000000
  eigenvalues    EBANDS =      -480.46537580
  atomic energy  EATOM  =      1658.13713092
  ---------------------------------------------------
  free energy    TOTEN  =       -75.57270920 eV

  energy without entropy =      -75.57270920  energy(sigma->0) =      -75.57270920


--------------------------------------------------------------------------------------------------------




--------------------------------------- Iteration      1(  25)  ---------------------------------------


    POTLOK:  cpu time      0.5933: real time      0.5938
    SETDIJ:  cpu time      0.0042: real time      0.0042
    TRIAL :  cpu time      0.5117: real time      0.5117
    CORREC:  cpu time      0.9402: real time      0.9408
    EDDIAG:  cpu time      0.2241: real time      0.2250
    CHARGE:  cpu time      0.1977: real time      0.1978
    --------------------------------------------
      LOOP:  cpu time      2.4859: real time      2.5045

 eigenvalue-minimisations  :     0
 total energy-change (2. order) :-0.4838148E-07  (-0.2124610E-07)
 number of electron      36.0000000 magnetization 
 augmentation part        0.0918390 magnetization 

 Free energy of the ion-electron system (eV)
  ---------------------------------------------------
  alpha Z        PSCENC =         0.35173684
  Ewald energy   TEWEN  =      2549.12670408
  -Hartree energ DENC   =     -3930.60881082
  -exchange      EXHF   =         0.00000000
  -V(xc)+E(xc)   XCENC  =       114.15756180
  PAW double counting   =     16429.83403963   -16416.10384649
  entropy T*S    EENTRO =        -0.00000000
  eigenvalues    EBANDS =      -480.46722520
  atomic energy  EATOM  =      1658.13713092
  ---------------------------------------------------
  free energy    TOTEN  =       -75.57270925 eV

  energy without entropy =      -75.57270925  energy(sigma->0) =      -75.57270925


--------------------------------------------------------------------------------------------------------


  average scaling for gradient   1.0454


 average (electrostatic) potential at core
  the test charge radii are     0.5770  0.4325  0.5902  0.5955
  (the norm of the test charge is              1.0000)
       1 -89.4206       2 -87.2438       3 -85.8495       4 -47.3446       5 -47.3613
       6 -44.8202       7 -44.8189       8 -44.8811       9 -44.7213      10 -44.7268
      11-104.2422      12-118.6226      13-120.4319



 E-fermi :  -6.1423     XC(G=0):  -0.1672     alpha+bet : -0.0715

 Fermi energy:        -6.1422739020

 k-point     1 :       0.0000    0.0000    0.0000
  band No.  band energies     occupation 
      1     -27.4504      2.00000
      2     -25.1021      2.00000
      3     -22.6800      2.00000
      4     -19.0278      2.00000
      5     -16.0336      2.00000
      6     -14.3341      2.00000
      7     -13.6425      2.00000
      8     -12.5528      2.00000
      9     -11.9211      2.00000
     10     -10.8261      2.00000
     11     -10.4025      2.00000
     12      -9.8138      2.00000
     13      -9.5085      2.00000
     14      -8.7468      2.00000
     15      -8.4305      2.00000
     16      -6.9346      2.00000
     17      -6.5626      2.00000
     18      -6.2635      2.00000
     19      -0.6807      0.00000
     20      -0.3001      0.00000
     21       0.0635      0.00000
     22       0.0979      0.00000
     23       0.1274      0.00000
     24       0.1866      0.00000
     25       0.3006      0.00000
     26       0.3266      0.00000
     27       0.4172      0.00000
     28       0.4451      0.00000
     29       0.4682      0.00000
     30       0.5330      0.00000
     31       0.5998      0.00000
     32       0.7925      0.00000


--------------------------------------------------------------------------------------------------------


 soft charge-density along one line, spin component           1
         0         1         2         3         4         5         6         7         8         9
 total charge-density along one line

 pseudopotential strength for first ion, spin component:           1
 12.835  21.602  -0.009  -0.000  -0.001  -0.016  -0.000  -0.002
 21.602  36.356  -0.015  -0.000  -0.002  -0.028  -0.001  -0.004
 -0.009  -0.015  -3.231  -0.000   0.000  -5.796  -0.000  -0.000
 -0.000  -0.000  -0.000  -3.231   0.000  -0.000  -5.795   0.000
 -0.001  -0.002   0.000   0.000  -3.230  -0.000   0.000  -5.794
 -0.016  -0.028  -5.796  -0.000  -0.000 -10.374  -0.000  -0.000
 -0.000  -0.001  -0.000  -5.795   0.000  -0.000 -10.373   0.000
 -0.002  -0.004  -0.000   0.000  -5.794  -0.000   0.000 -10.371
 total augmentation occupancy for first ion, spin component:           1
  8.886  -3.410   1.226   0.239   0.733  -0.538  -0.106  -0.369
 -3.410   1.416  -0.522  -0.112  -0.380   0.237   0.048   0.197
  1.226  -0.522   8.768   0.796   1.326  -3.281  -0.344  -0.558
  0.239  -0.112   0.796   3.162   0.312  -0.344  -0.849  -0.125
  0.733  -0.380   1.326   0.312   7.839  -0.558  -0.125  -2.805
 -0.538   0.237  -3.281  -0.344  -0.558   1.270   0.147   0.239
 -0.106   0.048  -0.344  -0.849  -0.125   0.147   0.233   0.052
 -0.369   0.197  -0.558  -0.125  -2.805   0.239   0.052   1.031


------------------------ aborting loop because EDIFF is reached ----------------------------------------


    FORLOC:  cpu time      0.0479: real time      0.0479
    FORNL :  cpu time      0.0390: real time      0.0395
    FORCOR:  cpu time      0.5199: real time      0.5203
    OFIELD:  cpu time      0.0066: real time      0.0066

  Hirshfeld charges:
            ion         q(e)     
   ------------------------------
      1     C        0.19483459
      2     C        0.00626210
      3     C       -0.11366859
      4     H        0.13641297
      5     H        0.13019649
      6     H        0.04205486
      7     H        0.04131952
      8     H        0.04848663
      9     H        0.04273545
     10     H        0.04223436
     11     N       -0.17274015
     12     O       -0.28564722
     13     O       -0.11248102

  Atomic reference data used in the T-S method for vdW correction:
            C6at              R0at           ALPHAat      REFSTATE
            (au)              (au)            (au)                
   ---------------------------------------------------------------
   C          46.600          3.590         12.000         0
   H           6.500          3.099          4.500         0
   N          24.200          3.345          7.400         0
   O          15.600          3.194          5.400         0
 
 Nth order contribution to Edisp (eV)
 Edisp(N=2): -0.18589944846553597     
 Edisp(N=3):   1.9965929153966193E-003
 Edisp(N=4):  -1.0247063365564854E-003
 Edisp(N=5):   1.4872806157999933E-005
 Edisp(N=6):  -1.2581089381870592E-005
 Edisp(N=inf): -0.18492544299817726     

  Tkatchenko/Scheffler method for vdW energy calculation
  ---------------------------------------------------------------------------------------------

  Parameters of vdW forcefield:
            C6ts              R0ts          ALPHAts         R0scs        ALPHAscs        RELVOL 
            (au)              (au)           (au)            (au)          (au)                 
   ---------------------------------------------------------------------------------------------
   C          32.691          3.384         10.051          3.503         11.145          0.838
   C          29.102          3.320          9.483          3.451         10.659          0.790
   C          26.410          3.266          9.034          3.379         10.005          0.753
   H           2.320          2.610          2.689          2.431          2.172          0.597
   H           2.330          2.612          2.694          2.445          2.208          0.599
   H           2.640          2.667          2.868          2.255          1.734          0.637
   H           2.655          2.669          2.876          2.256          1.736          0.639
   H           2.142          2.576          2.583          2.282          1.796          0.574
   H           2.340          2.614          2.700          2.299          1.836          0.600
   H           2.342          2.614          2.701          2.298          1.835          0.600
   N          16.474          3.137          6.106          3.163          6.259          0.825
   O          14.767          3.165          5.254          2.937          4.200          0.973
   O          12.546          3.080          4.843          2.965          4.321          0.897

  vdW correction parametrized for the method pbe       

  IVDW = 202
  VDW_RADIUS =    50.000 A
  VDW_SR =     0.830
  VDW_D =     6.000
  SCSRAD =   120.000 A
  LVDWSCS = T
  LSCSGRAD = T
  LSCALER0 = T
  ITIM = -1
  Edisp (eV):   -0.18493
    FORVDW:  cpu time      9.4734: real time      9.4784

 VOLUME and BASIS-vectors are now :
 -----------------------------------------------------------------------------
  energy-cutoff  :     1000.00
  volume of cell :    10648.00
      direct lattice vectors                 reciprocal lattice vectors
    22.000000000  0.000000000  0.000000000     0.045454545  0.000000000  0.000000000
     0.000000000 22.000000000  0.000000000     0.000000000  0.045454545  0.000000000
     0.000000000  0.000000000 22.000000000     0.000000000  0.000000000  0.045454545

  length of vectors
    22.000000000 22.000000000 22.000000000     0.045454545  0.045454545  0.045454545


 FORCES acting on ions:
    Electron-Ion                     Ewald-Force                    Non-Local-Force
 -----------------------------------------------------------------------------------------------
   0.848E+02 -.247E+02 0.242E+01   -.836E+02 0.310E+02 -.217E+01   -.126E+01 -.673E+01 -.295E+00
   -.169E+03 -.537E+00 -.103E+02   0.180E+03 0.133E+01 0.110E+02   -.114E+02 -.905E+00 -.803E+00
   -.924E+02 0.148E+03 0.150E+02   0.921E+02 -.149E+03 -.152E+02   0.301E+00 0.129E+01 0.171E+00
   0.691E+02 -.734E+02 0.689E+01   -.728E+02 0.801E+02 -.744E+01   0.369E+01 -.662E+01 0.547E+00
   0.709E+02 0.637E+02 0.260E+02   -.743E+02 -.701E+02 -.283E+02   0.339E+01 0.633E+01 0.229E+01
   -.483E+02 -.198E+02 -.684E+02   0.500E+02 0.220E+02 0.735E+02   -.168E+01 -.217E+01 -.505E+01
   -.557E+02 -.367E+02 0.542E+02   0.580E+02 0.402E+02 -.582E+02   -.223E+01 -.344E+01 0.403E+01
   -.736E+02 0.241E+02 -.118E+01   0.792E+02 -.247E+02 0.145E+01   -.550E+01 0.561E+00 -.262E+00
   0.979E+01 0.609E+02 -.451E+02   -.121E+02 -.642E+02 0.491E+02   0.224E+01 0.319E+01 -.396E+01
   0.326E+01 0.462E+02 0.609E+02   -.496E+01 -.482E+02 -.658E+02   0.169E+01 0.196E+01 0.492E+01
   0.275E+03 -.227E+02 -.132E+02   -.278E+03 0.212E+02 0.235E+02   0.302E+01 0.149E+01 -.105E+02
   -.143E+03 -.376E+03 -.539E+02   0.172E+03 0.421E+03 0.610E+02   -.290E+02 -.454E+02 -.715E+01
   0.837E+02 0.222E+03 0.360E+02   -.106E+03 -.261E+03 -.425E+02   0.223E+02 0.390E+02 0.650E+01
 -----------------------------------------------------------------------------------------------
   0.145E+02 0.114E+02 0.951E+01   0.000E+00 0.568E-13 -.213E-13   -.145E+02 -.114E+02 -.951E+01


 POSITION                                       TOTAL-FORCE (eV/Angst)
 -----------------------------------------------------------------------------------
     10.20352     12.19071     11.15459         0.031922     -0.060251     -0.005588
     12.17506     10.87041     11.08975        -0.149147     -0.054174     -0.013999
     12.56559      9.42006     10.91172        -0.016521      0.065918      0.007167
      8.34401     13.00833     11.04008        -0.011552      0.038863     -0.007939
      8.38118     11.28726     10.80669        -0.020949     -0.034469     -0.011751
     12.49307     11.26833     12.06130         0.028170      0.027403      0.049888
     12.59879     11.51269     10.30793         0.029934      0.039485     -0.037710
     13.65599      9.32217     10.96549         0.064380     -0.005766      0.002909
     12.12411      8.79651     11.69710        -0.017931     -0.041820      0.042589
     12.23315      9.04133      9.93870        -0.012554     -0.028203     -0.053641
      8.83649     12.13133     11.12503         0.007582     -0.023046      0.016547
     10.85947     13.20349     11.31353         0.036468      0.071788      0.012138
     10.72612     10.93578     11.01325         0.030199      0.004273     -0.000611
 -----------------------------------------------------------------------------------
    total drift:                                0.000136     -0.000589     -0.000133


--------------------------------------------------------------------------------------------------------



  FREE ENERGIE OF THE ION-ELECTRON SYSTEM (eV)
  ---------------------------------------------------
  free  energy   TOTEN  =       -75.75763469 eV

  energy  without entropy=      -75.75763469  energy(sigma->0) =      -75.75763469



--------------------------------------------------------------------------------------------------------


    POTLOK:  cpu time      0.6012: real time      0.6020


--------------------------------------------------------------------------------------------------------


 stress matrix after NEB project (eV)
     -0.08463      0.04671      0.00143
      0.04671     -0.08849     -0.00745
      0.00143     -0.00745     -0.00839
  FORCES: max atom, RMS     0.159297    0.071486
  FORCE total and by dimension    0.257746    0.149147
  Stress total and by dimension    0.139799    0.088495
     LOOP+:  cpu time     62.7681: real time     63.3819
    4ORBIT:  cpu time      0.0000: real time      0.0000

 total amount of memory used by VASP MPI-rank0   114458. kBytes
=======================================================================

   base      :      30000. kBytes
   nonl-proj :       5538. kBytes
   fftplans  :      24880. kBytes
   grid      :      51747. kBytes
   one-center:          1. kBytes
   wavefun   :       2292. kBytes

  
  
 General timing and accounting informations for this job:
 ========================================================
  
                  Total CPU time used (sec):       92.762
                            User time (sec):       88.855
                          System time (sec):        3.907
                         Elapsed time (sec):      100.831
  
                   Maximum memory used (kb):      298996.
                   Average memory used (kb):          N/A
  
                          Minor page faults:       234871
                          Major page faults:          625
                 Voluntary context switches:         7646
