 vasp.6.4.1 05Apr23 (build Jun  6 2023 14:46:38) gamma-only                      
 executed on        HPECrayEX_GCC date 2024.08.21  17:13:28
 running  512 mpi-ranks, with    1 threads/rank, on    4 nodes
 distrk:  each k-point on  256 cores,    2 groups
 distr:  one band on NCORE=  32 cores,    8 groups


--------------------------------------------------------------------------------------------------------


 INCAR:
   ALGO = Conjugate
   KPAR = 2
   NCORE = 32
   ISMEAR = 0
   SIGMA = 0.01
   PREC = Accurate
   EDIFF = 1E-7
   ENCUT = 1000
   ISIF = 0
   GGA = RE
   IVDW = 11
   LWAVE = .FALSE.
   LCHARG = .FALSE.
   SYMPREC = 1E-7
   LWAVE = .FALSE.
   LCHARG = .FALSE.

 POTCAR:    PAW_PBE C_h 06Feb2004                 
 POTCAR:    PAW_PBE H_h 06Feb2004                 
 POTCAR:    PAW_PBE N_h 06Feb2004                 
 POTCAR:    PAW_PBE O_h 06Feb2004                 
 POTCAR:    PAW_PBE C_h 06Feb2004                 
   VRHFIN =C: s2p2                                                                                  
   LEXCH  = PE                                                                                      
   EATOM  =   147.1560 eV,   10.8157 Ry                                                             
                                                                                                    
   TITEL  = PAW_PBE C_h 06Feb2004                                                                   
   LULTRA =        F    use ultrasoft PP ?                                                          
   IUNSCR =        1    unscreen: 0-lin 1-nonlin 2-no                                               
   RPACOR =    0.800    partial core radius                                                         
   POMASS =   12.011; ZVAL   =    4.000    mass and valenz                                          
   RCORE  =    1.100    outmost cutoff radius                                                       
   RWIGS  =    1.630; RWIGS  =    0.863    wigner-seitz radius (au A)                               
   ENMAX  =  700.000; ENMIN  =  500.000 eV                                                          
   ICORE  =        2    local potential                                                             
   LCOR   =        T    correct aug charges                                                         
   LPAW   =        T    paw PP                                                                      
   EAUG   =  946.768                                                                                
   DEXC   =    0.000                                                                                
   RMAX   =    1.128    core radius for proj-oper                                                   
   RAUG   =    1.300    factor for augmentation sphere                                              
   RDEP   =    1.162    radius for radial grids                                                     
   RDEPT  =    1.088    core radius for aug-charge                                                  
                                                                                                    
   Atomic configuration                                                                             
    4 entries                                                                                       
     n  l   j            E        occ.                                                              
     1  0  0.50      -273.3789   2.0000                                                             
     2  0  0.50       -13.7508   2.0000                                                             
     2  1  0.50        -5.2854   2.0000                                                             
     3  2  1.50        -5.4423   0.0000                                                             
   Description                                                                                      
     l       E           TYP  RCUT    TYP  RCUT                                                     
     0    -13.7508458     23  1.100                                                                 
     0     -8.2022199     23  1.100                                                                 
     1     -5.2854383     23  1.100                                                                 
     1      1.1560700     23  1.100                                                                 
     2     -5.4423304      7  1.100                                                                 
  local pseudopotential read in
  partial core-charges read in
  partial kinetic energy density read in
  atomic valenz-charges read in
  non local Contribution for L=           0  read in
    real space projection operators read in
  non local Contribution for L=           0  read in
    real space projection operators read in
  non local Contribution for L=           1  read in
    real space projection operators read in
  non local Contribution for L=           1  read in
    real space projection operators read in
    PAW grid and wavefunctions read in

   number of l-projection  operators is LMAX  =           4
   number of lm-projection operators is LMMAX =           8

 POTCAR:    PAW_PBE H_h 06Feb2004                 
   VRHFIN =H: ultrasoft test                                                                        
   LEXCH  = PE                                                                                      
   EATOM  =    12.4884 eV,    0.9179 Ry                                                             
                                                                                                    
   TITEL  = PAW_PBE H_h 06Feb2004                                                                   
   LULTRA =        F    use ultrasoft PP ?                                                          
   IUNSCR =        0    unscreen: 0-lin 1-nonlin 2-no                                               
   RPACOR =    0.000    partial core radius                                                         
   POMASS =    1.000; ZVAL   =    1.000    mass and valenz                                          
   RCORE  =    0.800    outmost cutoff radius                                                       
   RWIGS  =    0.700; RWIGS  =    0.370    wigner-seitz radius (au A)                               
   ENMAX  =  700.000; ENMIN  =  350.000 eV                                                          
   RCLOC  =    0.701    cutoff for local pot                                                        
   LCOR   =        T    correct aug charges                                                         
   LPAW   =        T    paw PP                                                                      
   EAUG   = 1000.000                                                                                
   RMAX   =    0.819    core radius for proj-oper                                                   
   RAUG   =    1.000    factor for augmentation sphere                                              
   RDEP   =    0.817    radius for radial grids                                                     
   RDEPT  =    0.817    core radius for aug-charge                                                  
                                                                                                    
   Atomic configuration                                                                             
    2 entries                                                                                       
     n  l   j            E        occ.                                                              
     1  0  0.50        -6.4927   1.0000                                                             
     2  1  0.50        -3.4015   0.0000                                                             
   Description                                                                                      
     l       E           TYP  RCUT    TYP  RCUT                                                     
     0     -6.4927493     23  0.800                                                                 
     0      6.8029130     23  0.800                                                                 
     1     -6.8029130     23  0.800                                                                 
  local pseudopotential read in
  atomic valenz-charges read in
  non local Contribution for L=           0  read in
    real space projection operators read in
  non local Contribution for L=           0  read in
    real space projection operators read in
  non local Contribution for L=           1  read in
    real space projection operators read in
    PAW grid and wavefunctions read in

   number of l-projection  operators is LMAX  =           3
   number of lm-projection operators is LMMAX =           5

 POTCAR:    PAW_PBE N_h 06Feb2004                 
   VRHFIN =N: s2p3                                                                                  
   LEXCH  = PE                                                                                      
   EATOM  =   264.5486 eV,   19.4438 Ry                                                             
                                                                                                    
   TITEL  = PAW_PBE N_h 06Feb2004                                                                   
   LULTRA =        F    use ultrasoft PP ?                                                          
   IUNSCR =        1    unscreen: 0-lin 1-nonlin 2-no                                               
   RPACOR =    0.800    partial core radius                                                         
   POMASS =   14.001; ZVAL   =    5.000    mass and valenz                                          
   RCORE  =    1.100    outmost cutoff radius                                                       
   RWIGS  =    1.480; RWIGS  =    0.783    wigner-seitz radius (au A)                               
   ENMAX  =  700.000; ENMIN  =  500.000 eV                                                          
   ICORE  =        2    local potential                                                             
   LCOR   =        T    correct aug charges                                                         
   LPAW   =        T    paw PP                                                                      
   EAUG   =  904.640                                                                                
   DEXC   =    0.000                                                                                
   RMAX   =    1.127    core radius for proj-oper                                                   
   RAUG   =    1.300    factor for augmentation sphere                                              
   RDEP   =    1.115    radius for radial grids                                                     
   RDEPT  =    1.106    core radius for aug-charge                                                  
                                                                                                    
   Atomic configuration                                                                             
    4 entries                                                                                       
     n  l   j            E        occ.                                                              
     1  0  0.50      -384.7179   2.0000                                                             
     2  0  0.50       -18.5828   2.0000                                                             
     2  1  0.50        -7.0898   3.0000                                                             
     3  2  1.50        -6.8029   0.0000                                                             
   Description                                                                                      
     l       E           TYP  RCUT    TYP  RCUT                                                     
     0    -18.5828117     23  1.100                                                                 
     0    -15.0750597     23  1.100                                                                 
     1     -7.0897851     23  1.100                                                                 
     1     -1.9663412     23  1.100                                                                 
     2     -6.8029130      7  1.100                                                                 
  local pseudopotential read in
  partial core-charges read in
  partial kinetic energy density read in
  kinetic energy density of atom read in
  atomic valenz-charges read in
  non local Contribution for L=           0  read in
    real space projection operators read in
  non local Contribution for L=           0  read in
    real space projection operators read in
  non local Contribution for L=           1  read in
    real space projection operators read in
  non local Contribution for L=           1  read in
    real space projection operators read in
    PAW grid and wavefunctions read in

   number of l-projection  operators is LMAX  =           4
   number of lm-projection operators is LMMAX =           8

 POTCAR:    PAW_PBE O_h 06Feb2004                 
   VRHFIN =O: s2p4                                                                                  
   LEXCH  = PE                                                                                      
   EATOM  =   432.3788 eV,   31.7789 Ry                                                             
                                                                                                    
   TITEL  = PAW_PBE O_h 06Feb2004                                                                   
   LULTRA =        F    use ultrasoft PP ?                                                          
   IUNSCR =        1    unscreen: 0-lin 1-nonlin 2-no                                               
   RPACOR =    0.800    partial core radius                                                         
   POMASS =   16.000; ZVAL   =    6.000    mass and valenz                                          
   RCORE  =    1.100    outmost cutoff radius                                                       
   RWIGS  =    1.400; RWIGS  =    0.741    wigner-seitz radius (au A)                               
   ENMAX  =  700.000; ENMIN  =  500.000 eV                                                          
   ICORE  =        2    local potential                                                             
   LCOR   =        T    correct aug charges                                                         
   LPAW   =        T    paw PP                                                                      
   EAUG   =  888.804                                                                                
   DEXC   =    0.000                                                                                
   RMAX   =    1.128    core radius for proj-oper                                                   
   RAUG   =    1.300    factor for augmentation sphere                                              
   RDEP   =    1.125    radius for radial grids                                                     
   RDEPT  =    1.088    core radius for aug-charge                                                  
                                                                                                    
   Atomic configuration                                                                             
    4 entries                                                                                       
     n  l   j            E        occ.                                                              
     1  0  0.50      -514.6923   2.0000                                                             
     2  0  0.50       -23.9615   2.0000                                                             
     2  1  0.50        -9.0305   4.0000                                                             
     3  2  1.50        -9.5241   0.0000                                                             
   Description                                                                                      
     l       E           TYP  RCUT    TYP  RCUT                                                     
     0    -23.9615319     23  1.100                                                                 
     0    -25.3221145     23  1.100                                                                 
     1     -9.0304911     23  1.100                                                                 
     1     -5.4802209     23  1.100                                                                 
     2     -9.5240782      7  1.100                                                                 
  local pseudopotential read in
  partial core-charges read in
  partial kinetic energy density read in
  atomic valenz-charges read in
  non local Contribution for L=           0  read in
    real space projection operators read in
  non local Contribution for L=           0  read in
    real space projection operators read in
  non local Contribution for L=           1  read in
    real space projection operators read in
  non local Contribution for L=           1  read in
    real space projection operators read in
    PAW grid and wavefunctions read in

   number of l-projection  operators is LMAX  =           4
   number of lm-projection operators is LMMAX =           8

 -----------------------------------------------------------------------------
|                                                                             |
|               ----> ADVICE to this user running VASP <----                  |
|                                                                             |
|     You enforced a specific xc type in the INCAR file but a different       |
|     type was found in the POTCAR file.                                      |
|     I HOPE YOU KNOW WHAT YOU ARE DOING!                                     |
|                                                                             |
 -----------------------------------------------------------------------------

  PAW_PBE C_h 06Feb2004                 :
 energy of atom  1       EATOM= -147.1560
 kinetic energy error for atom=    0.0031 (will be added to EATOM!!)
  PAW_PBE H_h 06Feb2004                 :
 energy of atom  2       EATOM=  -12.4884
 kinetic energy error for atom=    0.0006 (will be added to EATOM!!)
  PAW_PBE N_h 06Feb2004                 :
 energy of atom  3       EATOM= -264.5486
 kinetic energy error for atom=    0.0081 (will be added to EATOM!!)
  PAW_PBE O_h 06Feb2004                 :
 energy of atom  4       EATOM= -432.3788
 kinetic energy error for atom=    0.0171 (will be added to EATOM!!)


 POSCAR:  C  H  N  O
  positions in cartesian coordinates
  No initial velocities read in
 exchange correlation table for  LEXCH =       40
   RHO(1)=    0.500       N(1)  =     2000
   RHO(2)=  100.500       N(2)  =     4000

 VTST: version 4.1, (05/19/21)

 CHAIN: initializing optimizer
 
 OPT: Using VASP Dynamics algorithm
 CHAIN: Read ICHAIN            0

 POSCAR:  C  H  N  O
  positions in cartesian coordinates
  No initial velocities read in



--------------------------------------------------------------------------------------------------------


 ion  position               nearest neighbor table
   1  0.464  0.554  0.507-  12 1.22  13 1.37  11 1.37
   2  0.553  0.494  0.504-   7 1.10   6 1.10  13 1.45   3 1.51
   3  0.571  0.428  0.496-   9 1.10  10 1.10   8 1.10   2 1.51
   4  0.379  0.591  0.502-  11 1.01
   5  0.381  0.513  0.491-  11 1.01
   6  0.568  0.512  0.548-   2 1.10
   7  0.573  0.523  0.469-   2 1.10
   8  0.621  0.424  0.498-   3 1.10
   9  0.551  0.400  0.532-   3 1.10
  10  0.556  0.411  0.452-   3 1.10
  11  0.402  0.551  0.506-   4 1.01   5 1.01   1 1.37
  12  0.494  0.600  0.514-   1 1.22
  13  0.488  0.497  0.501-   1 1.37   2 1.45

  LATTYP: Found a simple cubic cell.
 ALAT       =    22.0000000000
  
  Lattice vectors:
  
 A1 = (  22.0000000000,   0.0000000000,   0.0000000000)
 A2 = (   0.0000000000,  22.0000000000,   0.0000000000)
 A3 = (   0.0000000000,   0.0000000000,  22.0000000000)


Analysis of symmetry for initial positions (statically):
=====================================================================
 Subroutine PRICEL returns:
 Original cell was already a primitive cell.
 

 Routine SETGRP: Setting up the symmetry group for a 
 simple cubic supercell.


 Subroutine GETGRP returns: Found  1 space group operations
 (whereof  1 operations were pure point group operations)
 out of a pool of 48 trial point group operations.


The static configuration has the point symmetry C_1 .


Analysis of symmetry for dynamics (positions and initial velocities):
=====================================================================
 Subroutine PRICEL returns:
 Original cell was already a primitive cell.
 

 Routine SETGRP: Setting up the symmetry group for a 
 simple cubic supercell.


 Subroutine GETGRP returns: Found  1 space group operations
 (whereof  1 operations were pure point group operations)
 out of a pool of 48 trial point group operations.


The dynamic configuration has the point symmetry C_1 .


 Subroutine INISYM returns: Found  1 space group operations
 (whereof  1 operations are pure point group operations),
 and found     1 'primitive' translations


----------------------------------------------------------------------------------------

                                     Primitive cell                                     

  volume of cell :   10648.0000

  direct lattice vectors                    reciprocal lattice vectors
    22.000000000  0.000000000  0.000000000     0.045454545  0.000000000  0.000000000
     0.000000000 22.000000000  0.000000000     0.000000000  0.045454545  0.000000000
     0.000000000  0.000000000 22.000000000     0.000000000  0.000000000  0.045454545

  length of vectors
    22.000000000 22.000000000 22.000000000     0.045454545  0.045454545  0.045454545

  position of ions in fractional coordinates (direct lattice)
     0.463796591  0.554123182  0.507026818
     0.553412045  0.494109545  0.504079545
     0.571163409  0.428184545  0.495987273
     0.379272955  0.591287727  0.501821818
     0.380962500  0.513057273  0.491213182
     0.567866591  0.512196818  0.548240909
     0.572672045  0.523304091  0.468542273
     0.620727045  0.423735000  0.498431364
     0.551095682  0.399841364  0.531686364
     0.556052500  0.410969545  0.451759091
     0.401658864  0.551424091  0.505683182
     0.493612500  0.600158636  0.514251364
     0.487551136  0.497080909  0.500602273

  ion indices of the primitive-cell ions
   primitive index   ion index
                 1           1
                 2           2
                 3           3
                 4           4
                 5           5
                 6           6
                 7           7
                 8           8
                 9           9
                10          10
                11          11
                12          12
                13          13

----------------------------------------------------------------------------------------



 KPOINTS: auto                                    

Automatic generation of k-mesh.
 Grid dimensions read from file:
 generate k-points for:    1    1    1

 Generating k-lattice:

  Cartesian coordinates                     Fractional coordinates (reciprocal lattice)
     0.045454545  0.000000000  0.000000000     1.000000000  0.000000000  0.000000000
     0.000000000  0.045454545  0.000000000     0.000000000  1.000000000  0.000000000
     0.000000000  0.000000000  0.045454545     0.000000000  0.000000000  1.000000000

  Length of vectors
     0.045454545  0.045454545  0.045454545

  Shift w.r.t. Gamma in fractional coordinates (k-lattice)
     0.000000000  0.000000000  0.000000000

 
 Subroutine IBZKPT returns following result:
 ===========================================
 
 Found      1 irreducible k-points:
 
 Following reciprocal coordinates:
            Coordinates               Weight
  0.000000  0.000000  0.000000      1.000000
 
 Following cartesian coordinates:
            Coordinates               Weight
  0.000000  0.000000  0.000000      1.000000
 


--------------------------------------------------------------------------------------------------------




 Dimension of arrays:
   k-points           NKPTS =      1   k-points in BZ     NKDIM =      1   number of bands    NBANDS=     32
   number of dos      NEDOS =    301   number of ions     NIONS =     13
   non local maximal  LDIM  =      4   non local SUM 2l+1 LMDIM =      8
   total plane-waves  NPLWV = ******
   max r-space proj   IRMAX =      1   max aug-charges    IRDMAX=   9667
   dimension x,y,z NGX =   240 NGY =  240 NGZ =  240
   dimension x,y,z NGXF=   480 NGYF=  480 NGZF=  480
   support grid    NGXF=   480 NGYF=  480 NGZF=  480
   ions per type =               3   7   1   2
   NGX,Y,Z   is equivalent  to a cutoff of  18.14, 18.14, 18.14 a.u.
   NGXF,Y,Z  is equivalent  to a cutoff of  36.27, 36.27, 36.27 a.u.

 SYSTEM =  unknown system                          
 POSCAR =   C  H  N  O                             

 Startparameter for this run:
   NWRITE =      2    write-flag & timer
   PREC   = accura    normal or accurate (medium, high low for compatibility)
   ISTART =      0    job   : 0-new  1-cont  2-samecut
   ICHARG =      2    charge: 1-file 2-atom 10-const
   ISPIN  =      1    spin polarized calculation?
   LNONCOLLINEAR =      F non collinear calculations
   LSORBIT =      F    spin-orbit coupling
   INIWAV =      1    electr: 0-lowe 1-rand  2-diag
   LASPH  =      F    aspherical Exc in radial PAW
 Electronic Relaxation 1
   ENCUT  = 1000.0 eV  73.50 Ry    8.57 a.u.  56.73 56.73 56.73*2*pi/ulx,y,z
   ENINI  = 1000.0     initial cutoff
   ENAUG  = 1000.0 eV  augmentation charge cutoff
   NELM   =     60;   NELMIN=  2; NELMDL= -5     # of ELM steps 
   EDIFF  = 0.1E-06   stopping-criterion for ELM
   LREAL  =      F    real-space projection
   NLSPLINE    = F    spline interpolate recip. space projectors
   LCOMPAT=      F    compatible to vasp.4.4
   GGA_COMPAT  = T    GGA compatible to vasp.4.4-vasp.4.6
   LMAXPAW     = -100 max onsite density
   LMAXMIX     =    2 max onsite mixed and CHGCAR
   VOSKOWN=      0    Vosko Wilk Nusair interpolation
   ROPT   =    0.00000   0.00000   0.00000   0.00000
 Ionic relaxation
   EDIFFG = 0.1E-05   stopping-criterion for IOM
   NSW    =      0    number of steps for IOM
   NBLOCK =      1;   KBLOCK =      1    inner block; outer block 
   IBRION =     -1    ionic relax: 0-MD 1-quasi-New 2-CG
   NFREE  =      0    steps in history (QN), initial steepest desc. (CG)
   ISIF   =      0    stress and relaxation
   IWAVPR =     10    prediction:  0-non 1-charg 2-wave 3-comb
   ISYM   =      2    0-nonsym 1-usesym 2-fastsym
   LCORR  =      T    Harris-Foulkes like correction to forces

   POTIM  = 0.5000    time-step for ionic-motion
   TEIN   =    0.0    initial temperature
   TEBEG  =    0.0;   TEEND  =   0.0 temperature during run
   SMASS  =  -3.00    Nose mass-parameter (am)
   estimated Nose-frequenzy (Omega)   =  0.10E-29 period in steps = 0.13E+47 mass=  -0.111E-25a.u.
   SCALEE = 1.0000    scale energy and forces
   NPACO  =    256;   APACO  = 10.0  distance and # of slots for P.C.
   PSTRESS=    0.0 pullay stress

  Mass of Ions in am
   POMASS =  12.01  1.00 14.00 16.00
  Ionic Valenz
   ZVAL   =   4.00  1.00  5.00  6.00
  Atomic Wigner-Seitz radii
   RWIGS  =  -1.00 -1.00 -1.00 -1.00
  virtual crystal weights 
   VCA    =   1.00  1.00  1.00  1.00
   NELECT =      36.0000    total number of electrons
   NUPDOWN=      -1.0000    fix difference up-down

 DOS related values:
   EMIN   =  10.00;   EMAX   =-10.00  energy-range for DOS
   EFERMI =   0.00;   METHOD = LEGACY      
   ISMEAR =     0;   SIGMA  =   0.01  broadening in eV -4-tet -1-fermi 0-gaus

 Electronic relaxation 2 (details)
   IALGO  =     58    algorithm
   LDIAG  =      T    sub-space diagonalisation (order eigenvalues)
   LSUBROT=      F    optimize rotation matrix (better conditioning)
   TURBO    =      0    0=normal 1=particle mesh
   IRESTART =      0    0=no restart 2=restart with 2 vectors
   NREBOOT  =      0    no. of reboots
   NMIN     =      0    reboot dimension
   EREF     =   0.00    reference energy to select bands
   IMIX   =      4    mixing-type and parameters
     AMIX     =   0.40;   BMIX     =  1.00
     AMIX_MAG =   1.60;   BMIX_MAG =  1.00
     AMIN     =   0.10
     WC   =   100.;   INIMIX=   1;  MIXPRE=   1;  MAXMIX= -45

 Intra band minimization:
   WEIMIN = 0.0000     energy-eigenvalue tresh-hold
   EBREAK =  0.78E-09  absolut break condition
   DEPER  =   0.30     relativ break condition  

   TIME   =   0.40     timestep for ELM

  volume/ion in A,a.u.               =     819.08      5527.40
  Fermi-wavevector in a.u.,A,eV,Ry     =   0.245708  0.464321  0.821418  0.060373
  Thomas-Fermi vector in A             =   1.056973

 Write flags
   LWAVE        =      F    write WAVECAR
   LDOWNSAMPLE  =      F    k-point downsampling of WAVECAR
   LCHARG       =      F    write CHGCAR
   LVTOT        =      F    write LOCPOT, total local potential
   LVHAR        =      F    write LOCPOT, Hartree potential only
   LELF         =      F    write electronic localiz. function (ELF)
   LORBIT       =      0    0 simple, 1 ext, 2 COOP (PROOUT), +10 PAW based schemes


 Dipole corrections
   LMONO  =      F    monopole corrections only (constant potential shift)
   LDIPOL =      F    correct potential (dipole corrections)
   IDIPOL =      0    1-x, 2-y, 3-z, 4-all directions 
   EPSILON=  1.0000000 bulk dielectric constant

 Exchange correlation treatment:
   GGA     =    RE    GGA type
   LEXCH   =    40    internal setting for exchange type
   LIBXC   =     F    Libxc                    
   VOSKOWN =     0    Vosko Wilk Nusair interpolation
   LHFCALC =     F    Hartree Fock is set to
   LHFONE  =     F    Hartree Fock one center treatment
   AEXX    =    0.0000 exact exchange contribution

 Linear response parameters
   LEPSILON=     F    determine dielectric tensor
   LRPA    =     F    only Hartree local field effects (RPA)
   LNABLA  =     F    use nabla operator in PAW spheres
   LVEL    =     F    velocity operator in full k-point grid
   CSHIFT  =0.1000    complex shift for real part using Kramers Kronig
   OMEGAMAX=  -1.0    maximum frequency
   DEG_THRESHOLD= 0.2000000E-02 threshold for treating states as degnerate
   RTIME   =   -0.100 relaxation time in fs
  (WPLASMAI=    0.000 imaginary part of plasma frequency in eV, 0.658/RTIME)
   DFIELD  = 0.0000000 0.0000000 0.0000000 field for delta impulse in time

  Optional k-point grid parameters
   LKPOINTS_OPT  =     F    use optional k-point grid
   KPOINTS_OPT_MODE=     1    mode for optional k-point grid

 Orbital magnetization related:
   ORBITALMAG=     F  switch on orbital magnetization
   LCHIMAG   =     F  perturbation theory with respect to B field
   DQ        =  0.001000  dq finite difference perturbation B field
   LLRAUG    =     F  two centre corrections for induced B field
   LBONE     =     F  B-component reconstruction in AE one-centre
   LVGVCALC  =     T  calculate vGv susceptibility
   LVGVAPPL  =     F  apply vGv susceptibility instead of pGv for G=0

 Random number generation:
   RANDOM_GENERATOR = DEFAULT
   PCG_SEED         = not used


--------------------------------------------------------------------------------------------------------


 Static calculation
 charge density and potential will be updated during run
 non-spin polarized calculation
 Conjugate gradient for all bands (Freysoldt, et al. PRB 79, 241103 (2009))
 preconditioned conjugated gradient                                        
 perform sub-space diagonalisation
    before iterative eigenvector-optimisation
 modified Broyden-mixing scheme, WC =      100.0
 initial mixing is a Kerker type mixing with AMIX =  0.4000 and BMIX =      1.0000
 Hartree-type preconditioning will be used
 using additional bands           14
 reciprocal scheme for non local part
 use partial core corrections
 no Harris-corrections to forces 
 use gradient corrections 
 use of overlap-Matrix (Vanderbilt PP)
 Gauss-broadening in eV      SIGMA  =   0.01


--------------------------------------------------------------------------------------------------------


  energy-cutoff  :     1000.00
  volume of cell :    10648.00
      direct lattice vectors                 reciprocal lattice vectors
    22.000000000  0.000000000  0.000000000     0.045454545  0.000000000  0.000000000
     0.000000000 22.000000000  0.000000000     0.000000000  0.045454545  0.000000000
     0.000000000  0.000000000 22.000000000     0.000000000  0.000000000  0.045454545

  length of vectors
    22.000000000 22.000000000 22.000000000     0.045454545  0.045454545  0.045454545



 k-points in units of 2pi/SCALE and weight: auto                                    
   0.00000000  0.00000000  0.00000000       1.000

 k-points in reciprocal lattice and weights: auto                                    
   0.00000000  0.00000000  0.00000000       1.000

 position of ions in fractional coordinates (direct lattice) 
   0.46379659  0.55412318  0.50702682
   0.55341205  0.49410955  0.50407955
   0.57116341  0.42818455  0.49598727
   0.37927295  0.59128773  0.50182182
   0.38096250  0.51305727  0.49121318
   0.56786659  0.51219682  0.54824091
   0.57267205  0.52330409  0.46854227
   0.62072705  0.42373500  0.49843136
   0.55109568  0.39984136  0.53168636
   0.55605250  0.41096955  0.45175909
   0.40165886  0.55142409  0.50568318
   0.49361250  0.60015864  0.51425136
   0.48755114  0.49708091  0.50060227

 position of ions in cartesian coordinates  (Angst):
  10.20352500 12.19071000 11.15459000
  12.17506500 10.87041000 11.08975000
  12.56559500  9.42006000 10.91172000
   8.34400500 13.00833000 11.04008000
   8.38117500 11.28726000 10.80669000
  12.49306500 11.26833000 12.06130000
  12.59878500 11.51269000 10.30793000
  13.65599500  9.32217000 10.96549000
  12.12410500  8.79651000 11.69710000
  12.23315500  9.04133000  9.93870000
   8.83649500 12.13133000 11.12503000
  10.85947500 13.20349000 11.31353000
  10.72612500 10.93578000 11.01325000



--------------------------------------------------------------------------------------------------------


 use parallel FFT for orbitals z direction half grid
 k-point   1 :   0.0000 0.0000 0.0000  plane waves:  381993

 maximum and minimum number of plane-waves per node :     11948    11928

 maximum number of plane-waves:    381993
 maximum index in each direction: 
   IXMAX=   56   IYMAX=   56   IZMAX=   56
   IXMIN=  -56   IYMIN=  -56   IZMIN=    0


 parallel 3D FFT for wavefunctions:
    minimum data exchange during FFTs selected (reduces bandwidth)
 parallel 3D FFT for charge:
    minimum data exchange during FFTs selected (reduces bandwidth)


 total amount of memory used by VASP MPI-rank0   114458. kBytes
=======================================================================

   base      :      30000. kBytes
   nonl-proj :       5538. kBytes
   fftplans  :      24880. kBytes
   grid      :      51747. kBytes
   one-center:          1. kBytes
   wavefun   :       2292. kBytes

     INWAV:  cpu time      0.0001: real time      0.0003
 Broyden mixing: mesh for mixing (old mesh)
   NGX =113   NGY =113   NGZ =113
  (NGX  =480   NGY  =480   NGZ  =480)
  gives a total of ****** points

 initial charge density was supplied:
 charge density of overlapping atoms calculated
 number of electron      36.0000000 magnetization 
 keeping initial charge density in first step


--------------------------------------------------------------------------------------------------------


 Maximum index for augmentation-charges          207 (set IRDMAX)


--------------------------------------------------------------------------------------------------------


 First call to EWALD:  gamma=   0.081
 Maximum number of real-space cells 3x 3x 3
 Maximum number of reciprocal cells 3x 3x 3

    FEWALD:  cpu time      0.0039: real time      0.0040


--------------------------------------- Ionic step        1  -------------------------------------------




--------------------------------------- Iteration      1(   1)  ---------------------------------------


    POTLOK:  cpu time      0.6136: real time      0.6147
    SETDIJ:  cpu time      0.0084: real time      0.0087
    TRIAL :  cpu time      0.9021: real time      0.9040
    CORREC:  cpu time      0.0029: real time      0.0029
    --------------------------------------------
      LOOP:  cpu time      1.5291: real time      1.6021

 eigenvalue-minimisations  :    80
 total energy-change (2. order) : 0.3538338E+03  (-0.9457532E+03)
 number of electron      36.0000000 magnetization 
 augmentation part       36.0000000 magnetization 

 Free energy of the ion-electron system (eV)
  ---------------------------------------------------
  alpha Z        PSCENC =         0.35173684
  Ewald energy   TEWEN  =      2549.12670408
  -Hartree energ DENC   =     -3773.64700077
  -exchange      EXHF   =         0.00000000
  -V(xc)+E(xc)   XCENC  =       105.62510270
  PAW double counting   =      1251.41098626    -1234.64426353
  entropy T*S    EENTRO =        -0.00007216
  eigenvalues    EBANDS =      -201.62710998
  atomic energy  EATOM  =      1657.23769719
  ---------------------------------------------------
  free energy    TOTEN  =       353.83378062 eV

  energy without entropy =      353.83385278  energy(sigma->0) =      353.83381670


--------------------------------------------------------------------------------------------------------




--------------------------------------- Iteration      1(   2)  ---------------------------------------


    TRIAL :  cpu time      1.1135: real time      1.1141
    CORREC:  cpu time      0.0001: real time      0.0001
    --------------------------------------------
      LOOP:  cpu time      1.1331: real time      1.1627

 eigenvalue-minimisations  :   112
 total energy-change (2. order) :-0.1918364E+03  (-0.1884095E+03)
 number of electron      36.0000000 magnetization 
 augmentation part       36.0000000 magnetization 

 Free energy of the ion-electron system (eV)
  ---------------------------------------------------
  alpha Z        PSCENC =         0.35173684
  Ewald energy   TEWEN  =      2549.12670408
  -Hartree energ DENC   =     -3773.64700077
  -exchange      EXHF   =         0.00000000
  -V(xc)+E(xc)   XCENC  =       105.62510270
  PAW double counting   =      1251.41098626    -1234.64426353
  entropy T*S    EENTRO =        -0.00000000
  eigenvalues    EBANDS =      -393.46362601
  atomic energy  EATOM  =      1657.23769719
  ---------------------------------------------------
  free energy    TOTEN  =       161.99733675 eV

  energy without entropy =      161.99733675  energy(sigma->0) =      161.99733675


--------------------------------------------------------------------------------------------------------




--------------------------------------- Iteration      1(   3)  ---------------------------------------


    TRIAL :  cpu time      1.1725: real time      1.1732
    CORREC:  cpu time      0.0001: real time      0.0001
    --------------------------------------------
      LOOP:  cpu time      1.1863: real time      1.2111

 eigenvalue-minimisations  :   120
 total energy-change (2. order) :-0.1734359E+03  (-0.1702566E+03)
 number of electron      36.0000000 magnetization 
 augmentation part       36.0000000 magnetization 

 Free energy of the ion-electron system (eV)
  ---------------------------------------------------
  alpha Z        PSCENC =         0.35173684
  Ewald energy   TEWEN  =      2549.12670408
  -Hartree energ DENC   =     -3773.64700077
  -exchange      EXHF   =         0.00000000
  -V(xc)+E(xc)   XCENC  =       105.62510270
  PAW double counting   =      1251.41098626    -1234.64426353
  entropy T*S    EENTRO =        -0.00000000
  eigenvalues    EBANDS =      -566.89952971
  atomic energy  EATOM  =      1657.23769719
  ---------------------------------------------------
  free energy    TOTEN  =       -11.43856694 eV

  energy without entropy =      -11.43856694  energy(sigma->0) =      -11.43856694


--------------------------------------------------------------------------------------------------------




--------------------------------------- Iteration      1(   4)  ---------------------------------------


    TRIAL :  cpu time      0.8683: real time      0.8688
    CORREC:  cpu time      0.0001: real time      0.0001
    --------------------------------------------
      LOOP:  cpu time      0.9024: real time      0.9033

 eigenvalue-minimisations  :    80
 total energy-change (2. order) :-0.6450956E+02  (-0.6436334E+02)
 number of electron      36.0000000 magnetization 
 augmentation part       36.0000000 magnetization 

 Free energy of the ion-electron system (eV)
  ---------------------------------------------------
  alpha Z        PSCENC =         0.35173684
  Ewald energy   TEWEN  =      2549.12670408
  -Hartree energ DENC   =     -3773.64700077
  -exchange      EXHF   =         0.00000000
  -V(xc)+E(xc)   XCENC  =       105.62510270
  PAW double counting   =      1251.41098626    -1234.64426353
  entropy T*S    EENTRO =        -0.00000000
  eigenvalues    EBANDS =      -631.40908520
  atomic energy  EATOM  =      1657.23769719
  ---------------------------------------------------
  free energy    TOTEN  =       -75.94812243 eV

  energy without entropy =      -75.94812243  energy(sigma->0) =      -75.94812243


--------------------------------------------------------------------------------------------------------




--------------------------------------- Iteration      1(   5)  ---------------------------------------


    TRIAL :  cpu time      0.8667: real time      0.8671
    CORREC:  cpu time      0.0001: real time      0.0001
    CHARGE:  cpu time      0.2392: real time      0.2407
    --------------------------------------------
      LOOP:  cpu time      1.1188: real time      1.1431

 eigenvalue-minimisations  :    80
 total energy-change (2. order) :-0.5632984E+01  (-0.5591150E+01)
 number of electron      36.0000000 magnetization 
 augmentation part        0.1516778 magnetization 

 Free energy of the ion-electron system (eV)
  ---------------------------------------------------
  alpha Z        PSCENC =         0.35173684
  Ewald energy   TEWEN  =      2549.12670408
  -Hartree energ DENC   =     -3773.64700077
  -exchange      EXHF   =         0.00000000
  -V(xc)+E(xc)   XCENC  =       105.62510270
  PAW double counting   =      1251.41098626    -1234.64426353
  entropy T*S    EENTRO =        -0.00000000
  eigenvalues    EBANDS =      -637.04206958
  atomic energy  EATOM  =      1657.23769719
  ---------------------------------------------------
  free energy    TOTEN  =       -81.58110682 eV

  energy without entropy =      -81.58110682  energy(sigma->0) =      -81.58110682


--------------------------------------------------------------------------------------------------------




--------------------------------------- Iteration      1(   6)  ---------------------------------------


    POTLOK:  cpu time      0.6264: real time      0.6270
    SETDIJ:  cpu time      0.0012: real time      0.0012
    TRIAL :  cpu time      0.5240: real time      0.5252
    CORREC:  cpu time      0.9768: real time      0.9778
    CHARGE:  cpu time      0.1998: real time      0.2002
    --------------------------------------------
      LOOP:  cpu time      2.3439: real time      2.3616

 eigenvalue-minimisations  :     0
 total energy-change (2. order) : 0.1479362E+02  (-0.6262497E+01)
 number of electron      36.0000000 magnetization 
 augmentation part        0.1097746 magnetization 

 Free energy of the ion-electron system (eV)
  ---------------------------------------------------
  alpha Z        PSCENC =         0.35173684
  Ewald energy   TEWEN  =      2549.12670408
  -Hartree energ DENC   =     -4061.01040825
  -exchange      EXHF   =         0.00000000
  -V(xc)+E(xc)   XCENC  =       118.72618615
  PAW double counting   =     15102.83366615   -15087.62452216
  entropy T*S    EENTRO =        -0.00000000
  eigenvalues    EBANDS =      -346.42854300
  atomic energy  EATOM  =      1657.23769719
  ---------------------------------------------------
  free energy    TOTEN  =       -66.78748301 eV

  energy without entropy =      -66.78748301  energy(sigma->0) =      -66.78748301


--------------------------------------------------------------------------------------------------------




--------------------------------------- Iteration      1(   7)  ---------------------------------------


    POTLOK:  cpu time      0.6272: real time      0.6273
    SETDIJ:  cpu time      0.0010: real time      0.0010
    TRIAL :  cpu time      0.5114: real time      0.5120
    CORREC:  cpu time      0.9745: real time      0.9751
    CHARGE:  cpu time      0.2002: real time      0.2003
    --------------------------------------------
      LOOP:  cpu time      2.3452: real time      2.3466

 eigenvalue-minimisations  :     0
 total energy-change (2. order) :-0.6320704E+01  (-0.7788368E+00)
 number of electron      36.0000000 magnetization 
 augmentation part        0.0848199 magnetization 

 Free energy of the ion-electron system (eV)
  ---------------------------------------------------
  alpha Z        PSCENC =         0.35173684
  Ewald energy   TEWEN  =      2549.12670408
  -Hartree energ DENC   =     -3930.72970829
  -exchange      EXHF   =         0.00000000
  -V(xc)+E(xc)   XCENC  =       113.04644254
  PAW double counting   =     18321.03377974   -18305.09242416
  entropy T*S    EENTRO =        -0.00000000
  eigenvalues    EBANDS =      -478.08241482
  atomic energy  EATOM  =      1657.23769719
  ---------------------------------------------------
  free energy    TOTEN  =       -73.10818689 eV

  energy without entropy =      -73.10818689  energy(sigma->0) =      -73.10818689


--------------------------------------------------------------------------------------------------------




--------------------------------------- Iteration      1(   8)  ---------------------------------------


    POTLOK:  cpu time      0.6268: real time      0.6275
    SETDIJ:  cpu time      0.0055: real time      0.0055
    TRIAL :  cpu time      0.5122: real time      0.5123
    CORREC:  cpu time      0.9705: real time      0.9710
    CHARGE:  cpu time      0.1989: real time      0.1990
    --------------------------------------------
      LOOP:  cpu time      2.3271: real time      2.3462

 eigenvalue-minimisations  :     0
 total energy-change (2. order) :-0.7832234E+00  (-0.3252998E+00)
 number of electron      36.0000000 magnetization 
 augmentation part        0.0799894 magnetization 

 Free energy of the ion-electron system (eV)
  ---------------------------------------------------
  alpha Z        PSCENC =         0.35173684
  Ewald energy   TEWEN  =      2549.12670408
  -Hartree energ DENC   =     -3936.81981792
  -exchange      EXHF   =         0.00000000
  -V(xc)+E(xc)   XCENC  =       113.17314843
  PAW double counting   =     18437.74195354   -18421.69925481
  entropy T*S    EENTRO =        -0.00000000
  eigenvalues    EBANDS =      -473.00357764
  atomic energy  EATOM  =      1657.23769719
  ---------------------------------------------------
  free energy    TOTEN  =       -73.89141030 eV

  energy without entropy =      -73.89141030  energy(sigma->0) =      -73.89141030


--------------------------------------------------------------------------------------------------------




--------------------------------------- Iteration      1(   9)  ---------------------------------------


    POTLOK:  cpu time      0.6252: real time      0.6255
    SETDIJ:  cpu time      0.0010: real time      0.0010
    TRIAL :  cpu time      0.5117: real time      0.5118
    CORREC:  cpu time      0.9812: real time      0.9817
    CHARGE:  cpu time      0.1992: real time      0.1996
    --------------------------------------------
      LOOP:  cpu time      2.3328: real time      2.3499

 eigenvalue-minimisations  :     0
 total energy-change (2. order) :-0.3236648E+00  (-0.1474847E+00)
 number of electron      36.0000000 magnetization 
 augmentation part        0.0800432 magnetization 

 Free energy of the ion-electron system (eV)
  ---------------------------------------------------
  alpha Z        PSCENC =         0.35173684
  Ewald energy   TEWEN  =      2549.12670408
  -Hartree energ DENC   =     -3937.31191657
  -exchange      EXHF   =         0.00000000
  -V(xc)+E(xc)   XCENC  =       113.12667287
  PAW double counting   =     18709.11190428   -18693.01671452
  entropy T*S    EENTRO =        -0.00000000
  eigenvalues    EBANDS =      -472.84115926
  atomic energy  EATOM  =      1657.23769719
  ---------------------------------------------------
  free energy    TOTEN  =       -74.21507509 eV

  energy without entropy =      -74.21507509  energy(sigma->0) =      -74.21507509


--------------------------------------------------------------------------------------------------------




--------------------------------------- Iteration      1(  10)  ---------------------------------------


    POTLOK:  cpu time      0.6251: real time      0.6252
    SETDIJ:  cpu time      0.0010: real time      0.0010
    TRIAL :  cpu time      0.5129: real time      0.5133
    CORREC:  cpu time      0.9708: real time      0.9716
    CHARGE:  cpu time      0.1995: real time      0.1996
    --------------------------------------------
      LOOP:  cpu time      2.3389: real time      2.3406

 eigenvalue-minimisations  :     0
 total energy-change (2. order) :-0.1452104E+00  (-0.4926972E-01)
 number of electron      36.0000000 magnetization 
 augmentation part        0.0825864 magnetization 

 Free energy of the ion-electron system (eV)
  ---------------------------------------------------
  alpha Z        PSCENC =         0.35173684
  Ewald energy   TEWEN  =      2549.12670408
  -Hartree energ DENC   =     -3932.57069841
  -exchange      EXHF   =         0.00000000
  -V(xc)+E(xc)   XCENC  =       112.99205024
  PAW double counting   =     18323.03283632   -18306.92895003
  entropy T*S    EENTRO =        -0.00000000
  eigenvalues    EBANDS =      -477.60166170
  atomic energy  EATOM  =      1657.23769719
  ---------------------------------------------------
  free energy    TOTEN  =       -74.36028548 eV

  energy without entropy =      -74.36028548  energy(sigma->0) =      -74.36028548


--------------------------------------------------------------------------------------------------------




--------------------------------------- Iteration      1(  11)  ---------------------------------------


    POTLOK:  cpu time      0.6230: real time      0.6236
    SETDIJ:  cpu time      0.0012: real time      0.0012
    TRIAL :  cpu time      0.5104: real time      0.5106
    CORREC:  cpu time      0.9725: real time      0.9729
    CHARGE:  cpu time      0.1996: real time      0.1997
    --------------------------------------------
      LOOP:  cpu time      2.3280: real time      2.3411

 eigenvalue-minimisations  :     0
 total energy-change (2. order) :-0.4904719E-01  (-0.1657309E-01)
 number of electron      36.0000000 magnetization 
 augmentation part        0.0840030 magnetization 

 Free energy of the ion-electron system (eV)
  ---------------------------------------------------
  alpha Z        PSCENC =         0.35173684
  Ewald energy   TEWEN  =      2549.12670408
  -Hartree energ DENC   =     -3931.26185891
  -exchange      EXHF   =         0.00000000
  -V(xc)+E(xc)   XCENC  =       112.96511963
  PAW double counting   =     17965.89658581   -17949.81438994
  entropy T*S    EENTRO =        -0.00000000
  eigenvalues    EBANDS =      -478.91092737
  atomic energy  EATOM  =      1657.23769719
  ---------------------------------------------------
  free energy    TOTEN  =       -74.40933267 eV

  energy without entropy =      -74.40933267  energy(sigma->0) =      -74.40933267


--------------------------------------------------------------------------------------------------------




--------------------------------------- Iteration      1(  12)  ---------------------------------------


    POTLOK:  cpu time      0.6240: real time      0.6245
    SETDIJ:  cpu time      0.0012: real time      0.0012
    TRIAL :  cpu time      0.5111: real time      0.5111
    CORREC:  cpu time      0.9720: real time      0.9728
    CHARGE:  cpu time      0.1997: real time      0.2001
    --------------------------------------------
      LOOP:  cpu time      2.3246: real time      2.3460

 eigenvalue-minimisations  :     0
 total energy-change (2. order) :-0.1654078E-01  (-0.5185491E-02)
 number of electron      36.0000000 magnetization 
 augmentation part        0.0842404 magnetization 

 Free energy of the ion-electron system (eV)
  ---------------------------------------------------
  alpha Z        PSCENC =         0.35173684
  Ewald energy   TEWEN  =      2549.12670408
  -Hartree energ DENC   =     -3931.19560275
  -exchange      EXHF   =         0.00000000
  -V(xc)+E(xc)   XCENC  =       112.94631061
  PAW double counting   =     17878.16673522   -17862.09520878
  entropy T*S    EENTRO =        -0.00000000
  eigenvalues    EBANDS =      -478.96424587
  atomic energy  EATOM  =      1657.23769719
  ---------------------------------------------------
  free energy    TOTEN  =       -74.42587346 eV

  energy without entropy =      -74.42587346  energy(sigma->0) =      -74.42587346


--------------------------------------------------------------------------------------------------------




--------------------------------------- Iteration      1(  13)  ---------------------------------------


    POTLOK:  cpu time      0.6634: real time      0.6636
    SETDIJ:  cpu time      0.0013: real time      0.0013
    TRIAL :  cpu time      0.5151: real time      0.5157
    CORREC:  cpu time      0.9744: real time      0.9748
    CHARGE:  cpu time      0.1992: real time      0.1993
    --------------------------------------------
      LOOP:  cpu time      2.3757: real time      2.3917

 eigenvalue-minimisations  :     0
 total energy-change (2. order) :-0.5188217E-02  (-0.1841513E-02)
 number of electron      36.0000000 magnetization 
 augmentation part        0.0843491 magnetization 

 Free energy of the ion-electron system (eV)
  ---------------------------------------------------
  alpha Z        PSCENC =         0.35173684
  Ewald energy   TEWEN  =      2549.12670408
  -Hartree energ DENC   =     -3931.04366487
  -exchange      EXHF   =         0.00000000
  -V(xc)+E(xc)   XCENC  =       112.93482511
  PAW double counting   =     17906.12956626   -17890.06019380
  entropy T*S    EENTRO =        -0.00000000
  eigenvalues    EBANDS =      -479.10773249
  atomic energy  EATOM  =      1657.23769719
  ---------------------------------------------------
  free energy    TOTEN  =       -74.43106167 eV

  energy without entropy =      -74.43106167  energy(sigma->0) =      -74.43106167


--------------------------------------------------------------------------------------------------------




--------------------------------------- Iteration      1(  14)  ---------------------------------------


    POTLOK:  cpu time      0.6197: real time      0.6202
    SETDIJ:  cpu time      0.0011: real time      0.0011
    TRIAL :  cpu time      0.5139: real time      0.5139
    CORREC:  cpu time      0.9611: real time      0.9618
    CHARGE:  cpu time      0.1992: real time      0.1993
    --------------------------------------------
      LOOP:  cpu time      2.3127: real time      2.3262

 eigenvalue-minimisations  :     0
 total energy-change (2. order) :-0.1844840E-02  (-0.7178674E-03)
 number of electron      36.0000000 magnetization 
 augmentation part        0.0844389 magnetization 

 Free energy of the ion-electron system (eV)
  ---------------------------------------------------
  alpha Z        PSCENC =         0.35173684
  Ewald energy   TEWEN  =      2549.12670408
  -Hartree energ DENC   =     -3930.95601485
  -exchange      EXHF   =         0.00000000
  -V(xc)+E(xc)   XCENC  =       112.93111764
  PAW double counting   =     17945.84557916   -17929.77666577
  entropy T*S    EENTRO =        -0.00000000
  eigenvalues    EBANDS =      -479.19306079
  atomic energy  EATOM  =      1657.23769719
  ---------------------------------------------------
  free energy    TOTEN  =       -74.43290651 eV

  energy without entropy =      -74.43290651  energy(sigma->0) =      -74.43290651


--------------------------------------------------------------------------------------------------------




--------------------------------------- Iteration      1(  15)  ---------------------------------------


    POTLOK:  cpu time      0.6136: real time      0.6141
    SETDIJ:  cpu time      0.0010: real time      0.0010
    TRIAL :  cpu time      0.5106: real time      0.5107
    CORREC:  cpu time      0.9612: real time      0.9618
    CHARGE:  cpu time      0.2004: real time      0.2010
    --------------------------------------------
      LOOP:  cpu time      2.3172: real time      2.3193

 eigenvalue-minimisations  :     0
 total energy-change (2. order) :-0.7193863E-03  (-0.2949436E-03)
 number of electron      36.0000000 magnetization 
 augmentation part        0.0845272 magnetization 

 Free energy of the ion-electron system (eV)
  ---------------------------------------------------
  alpha Z        PSCENC =         0.35173684
  Ewald energy   TEWEN  =      2549.12670408
  -Hartree energ DENC   =     -3931.16113700
  -exchange      EXHF   =         0.00000000
  -V(xc)+E(xc)   XCENC  =       112.93733491
  PAW double counting   =     17962.68646066   -17946.61783145
  entropy T*S    EENTRO =        -0.00000000
  eigenvalues    EBANDS =      -478.99459112
  atomic energy  EATOM  =      1657.23769719
  ---------------------------------------------------
  free energy    TOTEN  =       -74.43362590 eV

  energy without entropy =      -74.43362590  energy(sigma->0) =      -74.43362590


--------------------------------------------------------------------------------------------------------




--------------------------------------- Iteration      1(  16)  ---------------------------------------


    POTLOK:  cpu time      0.6042: real time      0.6044
    SETDIJ:  cpu time      0.0033: real time      0.0033
    TRIAL :  cpu time      0.5116: real time      0.5121
    CORREC:  cpu time      0.9454: real time      0.9460
    CHARGE:  cpu time      0.2004: real time      0.2005
    --------------------------------------------
      LOOP:  cpu time      2.2814: real time      2.2977

 eigenvalue-minimisations  :     0
 total energy-change (2. order) :-0.2958671E-03  (-0.1167421E-03)
 number of electron      36.0000000 magnetization 
 augmentation part        0.0845600 magnetization 

 Free energy of the ion-electron system (eV)
  ---------------------------------------------------
  alpha Z        PSCENC =         0.35173684
  Ewald energy   TEWEN  =      2549.12670408
  -Hartree energ DENC   =     -3931.26087687
  -exchange      EXHF   =         0.00000000
  -V(xc)+E(xc)   XCENC  =       112.94035223
  PAW double counting   =     17957.20408305   -17941.13549549
  entropy T*S    EENTRO =        -0.00000000
  eigenvalues    EBANDS =      -478.89812278
  atomic energy  EATOM  =      1657.23769719
  ---------------------------------------------------
  free energy    TOTEN  =       -74.43392177 eV

  energy without entropy =      -74.43392177  energy(sigma->0) =      -74.43392177


--------------------------------------------------------------------------------------------------------




--------------------------------------- Iteration      1(  17)  ---------------------------------------


    POTLOK:  cpu time      0.6073: real time      0.6080
    SETDIJ:  cpu time      0.0023: real time      0.0023
    TRIAL :  cpu time      0.5120: real time      0.5121
    CORREC:  cpu time      0.9437: real time      0.9441
    CHARGE:  cpu time      0.1996: real time      0.1997
    --------------------------------------------
      LOOP:  cpu time      2.2778: real time      2.2967

 eigenvalue-minimisations  :     0
 total energy-change (2. order) :-0.1172487E-03  (-0.4277770E-04)
 number of electron      36.0000000 magnetization 
 augmentation part        0.0846259 magnetization 

 Free energy of the ion-electron system (eV)
  ---------------------------------------------------
  alpha Z        PSCENC =         0.35173684
  Ewald energy   TEWEN  =      2549.12670408
  -Hartree energ DENC   =     -3931.25219169
  -exchange      EXHF   =         0.00000000
  -V(xc)+E(xc)   XCENC  =       112.93913462
  PAW double counting   =     17946.92140810   -17930.85241726
  entropy T*S    EENTRO =        -0.00000000
  eigenvalues    EBANDS =      -478.90611090
  atomic energy  EATOM  =      1657.23769719
  ---------------------------------------------------
  free energy    TOTEN  =       -74.43403901 eV

  energy without entropy =      -74.43403901  energy(sigma->0) =      -74.43403901


--------------------------------------------------------------------------------------------------------




--------------------------------------- Iteration      1(  18)  ---------------------------------------


    POTLOK:  cpu time      0.5958: real time      0.5964
    SETDIJ:  cpu time      0.0012: real time      0.0012
    TRIAL :  cpu time      0.5120: real time      0.5121
    CORREC:  cpu time      0.9428: real time      0.9434
    CHARGE:  cpu time      0.1995: real time      0.1999
    --------------------------------------------
      LOOP:  cpu time      2.2803: real time      2.2820

 eigenvalue-minimisations  :     0
 total energy-change (2. order) :-0.4279862E-04  (-0.1592135E-04)
 number of electron      36.0000000 magnetization 
 augmentation part        0.0845673 magnetization 

 Free energy of the ion-electron system (eV)
  ---------------------------------------------------
  alpha Z        PSCENC =         0.35173684
  Ewald energy   TEWEN  =      2549.12670408
  -Hartree energ DENC   =     -3931.35442304
  -exchange      EXHF   =         0.00000000
  -V(xc)+E(xc)   XCENC  =       112.94363542
  PAW double counting   =     17941.76249207   -17925.69400149
  entropy T*S    EENTRO =        -0.00000000
  eigenvalues    EBANDS =      -478.80792288
  atomic energy  EATOM  =      1657.23769719
  ---------------------------------------------------
  free energy    TOTEN  =       -74.43408181 eV

  energy without entropy =      -74.43408181  energy(sigma->0) =      -74.43408181


--------------------------------------------------------------------------------------------------------




--------------------------------------- Iteration      1(  19)  ---------------------------------------


    POTLOK:  cpu time      0.5972: real time      0.5973
    SETDIJ:  cpu time      0.0010: real time      0.0010
    TRIAL :  cpu time      0.5108: real time      0.5113
    CORREC:  cpu time      0.9451: real time      0.9458
    CHARGE:  cpu time      0.1996: real time      0.1997
    --------------------------------------------
      LOOP:  cpu time      2.2681: real time      2.3035

 eigenvalue-minimisations  :     0
 total energy-change (2. order) :-0.1585969E-04  (-0.6409116E-05)
 number of electron      36.0000000 magnetization 
 augmentation part        0.0845562 magnetization 

 Free energy of the ion-electron system (eV)
  ---------------------------------------------------
  alpha Z        PSCENC =         0.35173684
  Ewald energy   TEWEN  =      2549.12670408
  -Hartree energ DENC   =     -3931.30184970
  -exchange      EXHF   =         0.00000000
  -V(xc)+E(xc)   XCENC  =       112.94174675
  PAW double counting   =     17943.83343242   -17927.76443787
  entropy T*S    EENTRO =        -0.00000000
  eigenvalues    EBANDS =      -478.85912738
  atomic energy  EATOM  =      1657.23769719
  ---------------------------------------------------
  free energy    TOTEN  =       -74.43409767 eV

  energy without entropy =      -74.43409767  energy(sigma->0) =      -74.43409767


--------------------------------------------------------------------------------------------------------




--------------------------------------- Iteration      1(  20)  ---------------------------------------


    POTLOK:  cpu time      0.5949: real time      0.5950
    SETDIJ:  cpu time      0.0011: real time      0.0011
    TRIAL :  cpu time      0.5129: real time      0.5132
    CORREC:  cpu time      0.9430: real time      0.9436
    CHARGE:  cpu time      0.1992: real time      0.1993
    --------------------------------------------
      LOOP:  cpu time      2.2671: real time      2.2821

 eigenvalue-minimisations  :     0
 total energy-change (2. order) :-0.6254853E-05  (-0.2504172E-05)
 number of electron      36.0000000 magnetization 
 augmentation part        0.0845286 magnetization 

 Free energy of the ion-electron system (eV)
  ---------------------------------------------------
  alpha Z        PSCENC =         0.35173684
  Ewald energy   TEWEN  =      2549.12670408
  -Hartree energ DENC   =     -3931.32361955
  -exchange      EXHF   =         0.00000000
  -V(xc)+E(xc)   XCENC  =       112.94284892
  PAW double counting   =     17946.34413808   -17930.27522588
  entropy T*S    EENTRO =        -0.00000000
  eigenvalues    EBANDS =      -478.83838360
  atomic energy  EATOM  =      1657.23769719
  ---------------------------------------------------
  free energy    TOTEN  =       -74.43410393 eV

  energy without entropy =      -74.43410393  energy(sigma->0) =      -74.43410393


--------------------------------------------------------------------------------------------------------




--------------------------------------- Iteration      1(  21)  ---------------------------------------


    POTLOK:  cpu time      0.5946: real time      0.5951
    SETDIJ:  cpu time      0.0012: real time      0.0012
    TRIAL :  cpu time      0.5114: real time      0.5115
    CORREC:  cpu time      0.9445: real time      0.9451
    CHARGE:  cpu time      0.1996: real time      0.1997
    --------------------------------------------
      LOOP:  cpu time      2.2808: real time      2.2822

 eigenvalue-minimisations  :     0
 total energy-change (2. order) :-0.2401208E-05  (-0.9823298E-06)
 number of electron      36.0000000 magnetization 
 augmentation part        0.0845257 magnetization 

 Free energy of the ion-electron system (eV)
  ---------------------------------------------------
  alpha Z        PSCENC =         0.35173684
  Ewald energy   TEWEN  =      2549.12670408
  -Hartree energ DENC   =     -3931.30683985
  -exchange      EXHF   =         0.00000000
  -V(xc)+E(xc)   XCENC  =       112.94225320
  PAW double counting   =     17948.15905123   -17932.09000942
  entropy T*S    EENTRO =        -0.00000000
  eigenvalues    EBANDS =      -478.85469960
  atomic energy  EATOM  =      1657.23769719
  ---------------------------------------------------
  free energy    TOTEN  =       -74.43410633 eV

  energy without entropy =      -74.43410633  energy(sigma->0) =      -74.43410633


--------------------------------------------------------------------------------------------------------




--------------------------------------- Iteration      1(  22)  ---------------------------------------


    POTLOK:  cpu time      0.5956: real time      0.5961
    SETDIJ:  cpu time      0.0011: real time      0.0011
    TRIAL :  cpu time      0.5104: real time      0.5113
    CORREC:  cpu time      0.9410: real time      0.9412
    CHARGE:  cpu time      0.1990: real time      0.1995
    --------------------------------------------
      LOOP:  cpu time      2.2601: real time      2.2804

 eigenvalue-minimisations  :     0
 total energy-change (2. order) :-0.9301657E-06  (-0.3782164E-06)
 number of electron      36.0000000 magnetization 
 augmentation part        0.0845201 magnetization 

 Free energy of the ion-electron system (eV)
  ---------------------------------------------------
  alpha Z        PSCENC =         0.35173684
  Ewald energy   TEWEN  =      2549.12670408
  -Hartree energ DENC   =     -3931.30853288
  -exchange      EXHF   =         0.00000000
  -V(xc)+E(xc)   XCENC  =       112.94242885
  PAW double counting   =     17948.32183935   -17932.25285160
  entropy T*S    EENTRO =        -0.00000000
  eigenvalues    EBANDS =      -478.85312908
  atomic energy  EATOM  =      1657.23769719
  ---------------------------------------------------
  free energy    TOTEN  =       -74.43410726 eV

  energy without entropy =      -74.43410726  energy(sigma->0) =      -74.43410726


--------------------------------------------------------------------------------------------------------




--------------------------------------- Iteration      1(  23)  ---------------------------------------


    POTLOK:  cpu time      0.5946: real time      0.5950
    SETDIJ:  cpu time      0.0039: real time      0.0039
    TRIAL :  cpu time      0.5130: real time      0.5136
    CORREC:  cpu time      0.9425: real time      0.9432
    CHARGE:  cpu time      0.1994: real time      0.1995
    --------------------------------------------
      LOOP:  cpu time      2.2670: real time      2.2858

 eigenvalue-minimisations  :     0
 total energy-change (2. order) :-0.3687273E-06  (-0.1490885E-06)
 number of electron      36.0000000 magnetization 
 augmentation part        0.0845229 magnetization 

 Free energy of the ion-electron system (eV)
  ---------------------------------------------------
  alpha Z        PSCENC =         0.35173684
  Ewald energy   TEWEN  =      2549.12670408
  -Hartree energ DENC   =     -3931.30323181
  -exchange      EXHF   =         0.00000000
  -V(xc)+E(xc)   XCENC  =       112.94212887
  PAW double counting   =     17947.94704335   -17931.87802762
  entropy T*S    EENTRO =        -0.00000000
  eigenvalues    EBANDS =      -478.85815853
  atomic energy  EATOM  =      1657.23769719
  ---------------------------------------------------
  free energy    TOTEN  =       -74.43410763 eV

  energy without entropy =      -74.43410763  energy(sigma->0) =      -74.43410763


--------------------------------------------------------------------------------------------------------




--------------------------------------- Iteration      1(  24)  ---------------------------------------


    POTLOK:  cpu time      0.5960: real time      0.5966
    SETDIJ:  cpu time      0.0010: real time      0.0010
    TRIAL :  cpu time      0.5123: real time      0.5124
    CORREC:  cpu time      0.9436: real time      0.9441
    CHARGE:  cpu time      0.2002: real time      0.2004
    --------------------------------------------
      LOOP:  cpu time      2.2679: real time      2.2840

 eigenvalue-minimisations  :     0
 total energy-change (2. order) :-0.1464996E-06  (-0.4962045E-07)
 number of electron      36.0000000 magnetization 
 augmentation part        0.0845226 magnetization 

 Free energy of the ion-electron system (eV)
  ---------------------------------------------------
  alpha Z        PSCENC =         0.35173684
  Ewald energy   TEWEN  =      2549.12670408
  -Hartree energ DENC   =     -3931.30601445
  -exchange      EXHF   =         0.00000000
  -V(xc)+E(xc)   XCENC  =       112.94221301
  PAW double counting   =     17947.48455350   -17931.41556764
  entropy T*S    EENTRO =        -0.00000000
  eigenvalues    EBANDS =      -478.85543031
  atomic energy  EATOM  =      1657.23769719
  ---------------------------------------------------
  free energy    TOTEN  =       -74.43410777 eV

  energy without entropy =      -74.43410777  energy(sigma->0) =      -74.43410777


--------------------------------------------------------------------------------------------------------




--------------------------------------- Iteration      1(  25)  ---------------------------------------


    POTLOK:  cpu time      0.5950: real time      0.5953
    SETDIJ:  cpu time      0.0017: real time      0.0017
    TRIAL :  cpu time      0.5119: real time      0.5120
    CORREC:  cpu time      0.9461: real time      0.9468
    EDDIAG:  cpu time      0.2244: real time      0.2249
    CHARGE:  cpu time      0.2000: real time      0.2001
    --------------------------------------------
      LOOP:  cpu time      2.4948: real time      2.5110

 eigenvalue-minimisations  :     0
 total energy-change (2. order) :-0.4853246E-07  (-0.1916286E-07)
 number of electron      36.0000000 magnetization 
 augmentation part        0.0845233 magnetization 

 Free energy of the ion-electron system (eV)
  ---------------------------------------------------
  alpha Z        PSCENC =         0.35173684
  Ewald energy   TEWEN  =      2549.12670408
  -Hartree energ DENC   =     -3931.30461802
  -exchange      EXHF   =         0.00000000
  -V(xc)+E(xc)   XCENC  =       112.94214270
  PAW double counting   =     17947.34345551   -17931.27446100
  entropy T*S    EENTRO =        -0.00000000
  eigenvalues    EBANDS =      -478.85676512
  atomic energy  EATOM  =      1657.23769719
  ---------------------------------------------------
  free energy    TOTEN  =       -74.43410782 eV

  energy without entropy =      -74.43410782  energy(sigma->0) =      -74.43410782


--------------------------------------------------------------------------------------------------------


  average scaling for gradient   1.0457


 average (electrostatic) potential at core
  the test charge radii are     0.5770  0.4325  0.5902  0.5955
  (the norm of the test charge is              1.0000)
       1 -89.5808       2 -87.4365       3 -86.0543       4 -47.5137       5 -47.5300
       6 -44.9433       7 -44.9423       8 -44.9998       9 -44.8444      10 -44.8497
      11-104.3485      12-118.6534      13-120.4764



 E-fermi :  -6.0936     XC(G=0):  -0.1768     alpha+bet : -0.0715

 Fermi energy:        -6.0935558390

 k-point     1 :       0.0000    0.0000    0.0000
  band No.  band energies     occupation 
      1     -27.4388      2.00000
      2     -25.0868      2.00000
      3     -22.6737      2.00000
      4     -19.0181      2.00000
      5     -16.0083      2.00000
      6     -14.3095      2.00000
      7     -13.5870      2.00000
      8     -12.4966      2.00000
      9     -11.8548      2.00000
     10     -10.7702      2.00000
     11     -10.3366      2.00000
     12      -9.7503      2.00000
     13      -9.4713      2.00000
     14      -8.7144      2.00000
     15      -8.3729      2.00000
     16      -6.8673      2.00000
     17      -6.4934      2.00000
     18      -6.1782      2.00000
     19      -0.7233      0.00000
     20      -0.3540      0.00000
     21       0.0657      0.00000
     22       0.0780      0.00000
     23       0.0984      0.00000
     24       0.1873      0.00000
     25       0.2832      0.00000
     26       0.3058      0.00000
     27       0.4039      0.00000
     28       0.4211      0.00000
     29       0.4548      0.00000
     30       0.4600      0.00000
     31       0.5091      0.00000
     32       0.5851      0.00000


--------------------------------------------------------------------------------------------------------


 soft charge-density along one line, spin component           1
         0         1         2         3         4         5         6         7         8         9
 total charge-density along one line

 pseudopotential strength for first ion, spin component:           1
 12.857  21.641  -0.009  -0.000  -0.001  -0.017  -0.000  -0.003
 21.641  36.423  -0.016  -0.000  -0.002  -0.028  -0.001  -0.004
 -0.009  -0.016  -3.160  -0.000   0.000  -5.668  -0.000  -0.000
 -0.000  -0.000  -0.000  -3.160   0.000  -0.000  -5.667   0.000
 -0.001  -0.002   0.000   0.000  -3.159  -0.000   0.000  -5.666
 -0.017  -0.028  -5.668  -0.000  -0.000 -10.144  -0.000  -0.000
 -0.000  -0.001  -0.000  -5.667   0.000  -0.000 -10.143   0.000
 -0.003  -0.004  -0.000   0.000  -5.666  -0.000   0.000 -10.142
 total augmentation occupancy for first ion, spin component:           1
  9.445  -3.669   1.278   0.247   0.740  -0.563  -0.110  -0.373
 -3.669   1.526  -0.548  -0.116  -0.383   0.249   0.051   0.198
  1.278  -0.548   9.233   0.822   1.375  -3.500  -0.358  -0.582
  0.247  -0.116   0.822   3.442   0.326  -0.358  -0.969  -0.132
  0.740  -0.383   1.375   0.326   8.301  -0.582  -0.132  -3.021
 -0.563   0.249  -3.500  -0.358  -0.582   1.366   0.154   0.250
 -0.110   0.051  -0.358  -0.969  -0.132   0.154   0.277   0.055
 -0.373   0.198  -0.582  -0.132  -3.021   0.250   0.055   1.124


------------------------ aborting loop because EDIFF is reached ----------------------------------------


    FORLOC:  cpu time      0.0500: real time      0.0500
    FORNL :  cpu time      0.0384: real time      0.0385
    FORCOR:  cpu time      0.5208: real time      0.5208
    OFIELD:  cpu time      0.0046: real time      0.0046

 ---------------------------------------------------------------------------------------------

         DFTD3 V3.0 Rev 1        
 IVDW         = 11
 DF revpbe    
 parameters
 VDW_S6       =    1.0000
 VDW_S8       =    1.0100
 VDW_SR       =    0.9230
 rs18     =    1.0000
 alpha6   =   14.0000
 alpha8   =   16.0000
 k1-k3    =   16.0000    1.3333   -4.0000
 VDW_RADIUS   =   50.2022 A
 VDW_CNRADIUS =   21.1671 A
 Edisp (eV)   -0.32670

 E6    (eV) :    -0.2294
 E8    (eV) :    -0.0973
 % E8        : 29.77
    FORVDW:  cpu time      0.0538: real time      0.0538

 VOLUME and BASIS-vectors are now :
 -----------------------------------------------------------------------------
  energy-cutoff  :     1000.00
  volume of cell :    10648.00
      direct lattice vectors                 reciprocal lattice vectors
    22.000000000  0.000000000  0.000000000     0.045454545  0.000000000  0.000000000
     0.000000000 22.000000000  0.000000000     0.000000000  0.045454545  0.000000000
     0.000000000  0.000000000 22.000000000     0.000000000  0.000000000  0.045454545

  length of vectors
    22.000000000 22.000000000 22.000000000     0.045454545  0.045454545  0.045454545


 FORCES acting on ions:
    Electron-Ion                     Ewald-Force                    Non-Local-Force
 -----------------------------------------------------------------------------------------------
   0.849E+02 -.246E+02 0.242E+01   -.836E+02 0.310E+02 -.217E+01   -.134E+01 -.681E+01 -.303E+00
   -.169E+03 -.515E+00 -.103E+02   0.180E+03 0.133E+01 0.110E+02   -.113E+02 -.805E+00 -.782E+00
   -.924E+02 0.148E+03 0.150E+02   0.921E+02 -.149E+03 -.152E+02   0.339E+00 0.115E+01 0.154E+00
   0.691E+02 -.734E+02 0.688E+01   -.728E+02 0.801E+02 -.744E+01   0.369E+01 -.663E+01 0.545E+00
   0.709E+02 0.637E+02 0.260E+02   -.743E+02 -.701E+02 -.283E+02   0.339E+01 0.634E+01 0.229E+01
   -.483E+02 -.198E+02 -.683E+02   0.500E+02 0.220E+02 0.735E+02   -.168E+01 -.217E+01 -.505E+01
   -.557E+02 -.367E+02 0.541E+02   0.580E+02 0.402E+02 -.582E+02   -.223E+01 -.344E+01 0.403E+01
   -.736E+02 0.241E+02 -.118E+01   0.792E+02 -.247E+02 0.145E+01   -.550E+01 0.561E+00 -.262E+00
   0.979E+01 0.609E+02 -.451E+02   -.121E+02 -.642E+02 0.491E+02   0.224E+01 0.319E+01 -.396E+01
   0.326E+01 0.461E+02 0.608E+02   -.496E+01 -.482E+02 -.658E+02   0.169E+01 0.196E+01 0.492E+01
   0.275E+03 -.227E+02 -.131E+02   -.278E+03 0.212E+02 0.235E+02   0.283E+01 0.149E+01 -.106E+02
   -.142E+03 -.376E+03 -.539E+02   0.172E+03 0.421E+03 0.610E+02   -.291E+02 -.453E+02 -.713E+01
   0.836E+02 0.222E+03 0.360E+02   -.106E+03 -.261E+03 -.425E+02   0.224E+02 0.391E+02 0.652E+01
 -----------------------------------------------------------------------------------------------
   0.146E+02 0.114E+02 0.959E+01   0.000E+00 0.568E-13 -.213E-13   -.146E+02 -.114E+02 -.959E+01


 POSITION                                       TOTAL-FORCE (eV/Angst)
 -----------------------------------------------------------------------------------
     10.20352     12.19071     11.15459         0.046928     -0.070318     -0.018658
     12.17506     10.87041     11.08975        -0.043382      0.077542      0.011533
     12.56559      9.42006     10.91172         0.050295     -0.112749     -0.013517
      8.34401     13.00833     11.04008        -0.012282      0.038082     -0.015772
      8.38118     11.28726     10.80669        -0.043875     -0.029171     -0.020950
     12.49307     11.26833     12.06130         0.065374      0.045651      0.091112
     12.59879     11.51269     10.30793         0.071442      0.067272     -0.068084
     13.65599      9.32217     10.96549         0.111643     -0.009553      0.005279
     12.12411      8.79651     11.69710        -0.040837     -0.060063      0.070931
     12.23315      9.04133      9.93870        -0.031664     -0.037658     -0.088504
      8.83649     12.13133     11.12503        -0.271258     -0.034180      0.031200
     10.85947     13.20349     11.31353         0.184853      0.357286      0.055531
     10.72612     10.93578     11.01325        -0.087238     -0.232139     -0.040099
 -----------------------------------------------------------------------------------
    total drift:                                0.000205     -0.000587     -0.000205


--------------------------------------------------------------------------------------------------------



  FREE ENERGIE OF THE ION-ELECTRON SYSTEM (eV)
  ---------------------------------------------------
  free  energy   TOTEN  =       -74.76080973 eV

  energy  without entropy=      -74.76080973  energy(sigma->0) =      -74.76080973



--------------------------------------------------------------------------------------------------------


    POTLOK:  cpu time      0.6413: real time      0.6418


--------------------------------------------------------------------------------------------------------


 stress matrix after NEB project (eV)
      0.02418      0.15500      0.01568
      0.15500     -0.02592     -0.00034
      0.01568     -0.00034      0.04105
  FORCES: max atom, RMS     0.406088    0.175809
  FORCE total and by dimension    0.633890    0.357286
  Stress total and by dimension    0.226906    0.155004
     LOOP+:  cpu time     53.4979: real time     53.9889
    4ORBIT:  cpu time      0.0000: real time      0.0000

 total amount of memory used by VASP MPI-rank0   114458. kBytes
=======================================================================

   base      :      30000. kBytes
   nonl-proj :       5538. kBytes
   fftplans  :      24880. kBytes
   grid      :      51747. kBytes
   one-center:          1. kBytes
   wavefun   :       2292. kBytes

  
  
 General timing and accounting informations for this job:
 ========================================================
  
                  Total CPU time used (sec):       84.871
                            User time (sec):       80.381
                          System time (sec):        4.490
                         Elapsed time (sec):       90.843
  
                   Maximum memory used (kb):      297964.
                   Average memory used (kb):          N/A
  
                          Minor page faults:       194364
                          Major page faults:          604
                 Voluntary context switches:         7480
