 vasp.6.4.1 05Apr23 (build Jun  6 2023 14:46:38) gamma-only                      
 executed on        HPECrayEX_GCC date 2024.08.21  18:13:28
 running  512 mpi-ranks, with    1 threads/rank, on    4 nodes
 distrk:  each k-point on  256 cores,    2 groups
 distr:  one band on NCORE=  32 cores,    8 groups


--------------------------------------------------------------------------------------------------------


 INCAR:
   ALGO = Conjugate
   KPAR = 2
   NCORE = 32
   ISMEAR = 0
   SIGMA = 0.01
   PREC = Accurate
   EDIFF = 1E-7
   ENCUT = 1000
   ISIF = 0
   METAGGA = RSCAN
   LASPH = .TRUE.
   SYMPREC = 1E-7
   LWAVE = .FALSE.
   LCHARG = .FALSE.
   LWAVE = .FALSE.
   LCHARG = .FALSE.

 POTCAR:    PAW_PBE C_h 06Feb2004                 
 POTCAR:    PAW_PBE H_h 06Feb2004                 
 POTCAR:    PAW_PBE N_h 06Feb2004                 
 POTCAR:    PAW_PBE O_h 06Feb2004                 
 POTCAR:    PAW_PBE C_h 06Feb2004                 
   VRHFIN =C: s2p2                                                                                  
   LEXCH  = PE                                                                                      
   EATOM  =   147.1560 eV,   10.8157 Ry                                                             
                                                                                                    
   TITEL  = PAW_PBE C_h 06Feb2004                                                                   
   LULTRA =        F    use ultrasoft PP ?                                                          
   IUNSCR =        1    unscreen: 0-lin 1-nonlin 2-no                                               
   RPACOR =    0.800    partial core radius                                                         
   POMASS =   12.011; ZVAL   =    4.000    mass and valenz                                          
   RCORE  =    1.100    outmost cutoff radius                                                       
   RWIGS  =    1.630; RWIGS  =    0.863    wigner-seitz radius (au A)                               
   ENMAX  =  700.000; ENMIN  =  500.000 eV                                                          
   ICORE  =        2    local potential                                                             
   LCOR   =        T    correct aug charges                                                         
   LPAW   =        T    paw PP                                                                      
   EAUG   =  946.768                                                                                
   DEXC   =    0.000                                                                                
   RMAX   =    1.128    core radius for proj-oper                                                   
   RAUG   =    1.300    factor for augmentation sphere                                              
   RDEP   =    1.162    radius for radial grids                                                     
   RDEPT  =    1.088    core radius for aug-charge                                                  
                                                                                                    
   Atomic configuration                                                                             
    4 entries                                                                                       
     n  l   j            E        occ.                                                              
     1  0  0.50      -273.3789   2.0000                                                             
     2  0  0.50       -13.7508   2.0000                                                             
     2  1  0.50        -5.2854   2.0000                                                             
     3  2  1.50        -5.4423   0.0000                                                             
   Description                                                                                      
     l       E           TYP  RCUT    TYP  RCUT                                                     
     0    -13.7508458     23  1.100                                                                 
     0     -8.2022199     23  1.100                                                                 
     1     -5.2854383     23  1.100                                                                 
     1      1.1560700     23  1.100                                                                 
     2     -5.4423304      7  1.100                                                                 
  local pseudopotential read in
  partial core-charges read in
  partial kinetic energy density read in
  atomic valenz-charges read in
  non local Contribution for L=           0  read in
    real space projection operators read in
  non local Contribution for L=           0  read in
    real space projection operators read in
  non local Contribution for L=           1  read in
    real space projection operators read in
  non local Contribution for L=           1  read in
    real space projection operators read in
    PAW grid and wavefunctions read in

   number of l-projection  operators is LMAX  =           4
   number of lm-projection operators is LMMAX =           8

 POTCAR:    PAW_PBE H_h 06Feb2004                 
   VRHFIN =H: ultrasoft test                                                                        
   LEXCH  = PE                                                                                      
   EATOM  =    12.4884 eV,    0.9179 Ry                                                             
                                                                                                    
   TITEL  = PAW_PBE H_h 06Feb2004                                                                   
   LULTRA =        F    use ultrasoft PP ?                                                          
   IUNSCR =        0    unscreen: 0-lin 1-nonlin 2-no                                               
   RPACOR =    0.000    partial core radius                                                         
   POMASS =    1.000; ZVAL   =    1.000    mass and valenz                                          
   RCORE  =    0.800    outmost cutoff radius                                                       
   RWIGS  =    0.700; RWIGS  =    0.370    wigner-seitz radius (au A)                               
   ENMAX  =  700.000; ENMIN  =  350.000 eV                                                          
   RCLOC  =    0.701    cutoff for local pot                                                        
   LCOR   =        T    correct aug charges                                                         
   LPAW   =        T    paw PP                                                                      
   EAUG   = 1000.000                                                                                
   RMAX   =    0.819    core radius for proj-oper                                                   
   RAUG   =    1.000    factor for augmentation sphere                                              
   RDEP   =    0.817    radius for radial grids                                                     
   RDEPT  =    0.817    core radius for aug-charge                                                  
                                                                                                    
   Atomic configuration                                                                             
    2 entries                                                                                       
     n  l   j            E        occ.                                                              
     1  0  0.50        -6.4927   1.0000                                                             
     2  1  0.50        -3.4015   0.0000                                                             
   Description                                                                                      
     l       E           TYP  RCUT    TYP  RCUT                                                     
     0     -6.4927493     23  0.800                                                                 
     0      6.8029130     23  0.800                                                                 
     1     -6.8029130     23  0.800                                                                 
  local pseudopotential read in
  atomic valenz-charges read in
  non local Contribution for L=           0  read in
    real space projection operators read in
  non local Contribution for L=           0  read in
    real space projection operators read in
  non local Contribution for L=           1  read in
    real space projection operators read in
    PAW grid and wavefunctions read in

   number of l-projection  operators is LMAX  =           3
   number of lm-projection operators is LMMAX =           5

 POTCAR:    PAW_PBE N_h 06Feb2004                 
   VRHFIN =N: s2p3                                                                                  
   LEXCH  = PE                                                                                      
   EATOM  =   264.5486 eV,   19.4438 Ry                                                             
                                                                                                    
   TITEL  = PAW_PBE N_h 06Feb2004                                                                   
   LULTRA =        F    use ultrasoft PP ?                                                          
   IUNSCR =        1    unscreen: 0-lin 1-nonlin 2-no                                               
   RPACOR =    0.800    partial core radius                                                         
   POMASS =   14.001; ZVAL   =    5.000    mass and valenz                                          
   RCORE  =    1.100    outmost cutoff radius                                                       
   RWIGS  =    1.480; RWIGS  =    0.783    wigner-seitz radius (au A)                               
   ENMAX  =  700.000; ENMIN  =  500.000 eV                                                          
   ICORE  =        2    local potential                                                             
   LCOR   =        T    correct aug charges                                                         
   LPAW   =        T    paw PP                                                                      
   EAUG   =  904.640                                                                                
   DEXC   =    0.000                                                                                
   RMAX   =    1.127    core radius for proj-oper                                                   
   RAUG   =    1.300    factor for augmentation sphere                                              
   RDEP   =    1.115    radius for radial grids                                                     
   RDEPT  =    1.106    core radius for aug-charge                                                  
                                                                                                    
   Atomic configuration                                                                             
    4 entries                                                                                       
     n  l   j            E        occ.                                                              
     1  0  0.50      -384.7179   2.0000                                                             
     2  0  0.50       -18.5828   2.0000                                                             
     2  1  0.50        -7.0898   3.0000                                                             
     3  2  1.50        -6.8029   0.0000                                                             
   Description                                                                                      
     l       E           TYP  RCUT    TYP  RCUT                                                     
     0    -18.5828117     23  1.100                                                                 
     0    -15.0750597     23  1.100                                                                 
     1     -7.0897851     23  1.100                                                                 
     1     -1.9663412     23  1.100                                                                 
     2     -6.8029130      7  1.100                                                                 
  local pseudopotential read in
  partial core-charges read in
  partial kinetic energy density read in
  kinetic energy density of atom read in
  atomic valenz-charges read in
  non local Contribution for L=           0  read in
    real space projection operators read in
  non local Contribution for L=           0  read in
    real space projection operators read in
  non local Contribution for L=           1  read in
    real space projection operators read in
  non local Contribution for L=           1  read in
    real space projection operators read in
    PAW grid and wavefunctions read in

   number of l-projection  operators is LMAX  =           4
   number of lm-projection operators is LMMAX =           8

 POTCAR:    PAW_PBE O_h 06Feb2004                 
   VRHFIN =O: s2p4                                                                                  
   LEXCH  = PE                                                                                      
   EATOM  =   432.3788 eV,   31.7789 Ry                                                             
                                                                                                    
   TITEL  = PAW_PBE O_h 06Feb2004                                                                   
   LULTRA =        F    use ultrasoft PP ?                                                          
   IUNSCR =        1    unscreen: 0-lin 1-nonlin 2-no                                               
   RPACOR =    0.800    partial core radius                                                         
   POMASS =   16.000; ZVAL   =    6.000    mass and valenz                                          
   RCORE  =    1.100    outmost cutoff radius                                                       
   RWIGS  =    1.400; RWIGS  =    0.741    wigner-seitz radius (au A)                               
   ENMAX  =  700.000; ENMIN  =  500.000 eV                                                          
   ICORE  =        2    local potential                                                             
   LCOR   =        T    correct aug charges                                                         
   LPAW   =        T    paw PP                                                                      
   EAUG   =  888.804                                                                                
   DEXC   =    0.000                                                                                
   RMAX   =    1.128    core radius for proj-oper                                                   
   RAUG   =    1.300    factor for augmentation sphere                                              
   RDEP   =    1.125    radius for radial grids                                                     
   RDEPT  =    1.088    core radius for aug-charge                                                  
                                                                                                    
   Atomic configuration                                                                             
    4 entries                                                                                       
     n  l   j            E        occ.                                                              
     1  0  0.50      -514.6923   2.0000                                                             
     2  0  0.50       -23.9615   2.0000                                                             
     2  1  0.50        -9.0305   4.0000                                                             
     3  2  1.50        -9.5241   0.0000                                                             
   Description                                                                                      
     l       E           TYP  RCUT    TYP  RCUT                                                     
     0    -23.9615319     23  1.100                                                                 
     0    -25.3221145     23  1.100                                                                 
     1     -9.0304911     23  1.100                                                                 
     1     -5.4802209     23  1.100                                                                 
     2     -9.5240782      7  1.100                                                                 
  local pseudopotential read in
  partial core-charges read in
  partial kinetic energy density read in
  atomic valenz-charges read in
  non local Contribution for L=           0  read in
    real space projection operators read in
  non local Contribution for L=           0  read in
    real space projection operators read in
  non local Contribution for L=           1  read in
    real space projection operators read in
  non local Contribution for L=           1  read in
    real space projection operators read in
    PAW grid and wavefunctions read in

   number of l-projection  operators is LMAX  =           4
   number of lm-projection operators is LMMAX =           8

  PAW_PBE C_h 06Feb2004                 :
 energy of atom  1       EATOM= -147.1560
 kinetic energy error for atom=    0.0031 (will be added to EATOM!!)
  PAW_PBE H_h 06Feb2004                 :
 energy of atom  2       EATOM=  -12.4884
 kinetic energy error for atom=    0.0006 (will be added to EATOM!!)
  PAW_PBE N_h 06Feb2004                 :
 energy of atom  3       EATOM= -264.5486
 kinetic energy error for atom=    0.0081 (will be added to EATOM!!)
  PAW_PBE O_h 06Feb2004                 :
 energy of atom  4       EATOM= -432.3788
 kinetic energy error for atom=    0.0171 (will be added to EATOM!!)


 POSCAR:  C  H  N  O
  positions in cartesian coordinates
  No initial velocities read in

 METAGGA = RSCAN                                       LMAXTAU =  6    LMIXTAU =  F

 exchange correlation table for  LEXCH =        8
   RHO(1)=    0.500       N(1)  =     2000
   RHO(2)=  100.500       N(2)  =     4000

 VTST: version 4.1, (05/19/21)

 CHAIN: initializing optimizer
 
 OPT: Using VASP Dynamics algorithm
 CHAIN: Read ICHAIN            0

 POSCAR:  C  H  N  O
  positions in cartesian coordinates
  No initial velocities read in



--------------------------------------------------------------------------------------------------------


 ion  position               nearest neighbor table
   1  0.464  0.554  0.507-  12 1.22  13 1.37  11 1.37
   2  0.553  0.494  0.504-   7 1.10   6 1.10  13 1.45   3 1.51
   3  0.571  0.428  0.496-   9 1.10  10 1.10   8 1.10   2 1.51
   4  0.379  0.591  0.502-  11 1.01
   5  0.381  0.513  0.491-  11 1.01
   6  0.568  0.512  0.548-   2 1.10
   7  0.573  0.523  0.469-   2 1.10
   8  0.621  0.424  0.498-   3 1.10
   9  0.551  0.400  0.532-   3 1.10
  10  0.556  0.411  0.452-   3 1.10
  11  0.402  0.551  0.506-   4 1.01   5 1.01   1 1.37
  12  0.494  0.600  0.514-   1 1.22
  13  0.488  0.497  0.501-   1 1.37   2 1.45

  LATTYP: Found a simple cubic cell.
 ALAT       =    22.0000000000
  
  Lattice vectors:
  
 A1 = (  22.0000000000,   0.0000000000,   0.0000000000)
 A2 = (   0.0000000000,  22.0000000000,   0.0000000000)
 A3 = (   0.0000000000,   0.0000000000,  22.0000000000)


Analysis of symmetry for initial positions (statically):
=====================================================================
 Subroutine PRICEL returns:
 Original cell was already a primitive cell.
 

 Routine SETGRP: Setting up the symmetry group for a 
 simple cubic supercell.


 Subroutine GETGRP returns: Found  1 space group operations
 (whereof  1 operations were pure point group operations)
 out of a pool of 48 trial point group operations.


The static configuration has the point symmetry C_1 .


Analysis of symmetry for dynamics (positions and initial velocities):
=====================================================================
 Subroutine PRICEL returns:
 Original cell was already a primitive cell.
 

 Routine SETGRP: Setting up the symmetry group for a 
 simple cubic supercell.


 Subroutine GETGRP returns: Found  1 space group operations
 (whereof  1 operations were pure point group operations)
 out of a pool of 48 trial point group operations.


The dynamic configuration has the point symmetry C_1 .


 Subroutine INISYM returns: Found  1 space group operations
 (whereof  1 operations are pure point group operations),
 and found     1 'primitive' translations


----------------------------------------------------------------------------------------

                                     Primitive cell                                     

  volume of cell :   10648.0000

  direct lattice vectors                    reciprocal lattice vectors
    22.000000000  0.000000000  0.000000000     0.045454545  0.000000000  0.000000000
     0.000000000 22.000000000  0.000000000     0.000000000  0.045454545  0.000000000
     0.000000000  0.000000000 22.000000000     0.000000000  0.000000000  0.045454545

  length of vectors
    22.000000000 22.000000000 22.000000000     0.045454545  0.045454545  0.045454545

  position of ions in fractional coordinates (direct lattice)
     0.463796591  0.554123182  0.507026818
     0.553412045  0.494109545  0.504079545
     0.571163409  0.428184545  0.495987273
     0.379272955  0.591287727  0.501821818
     0.380962500  0.513057273  0.491213182
     0.567866591  0.512196818  0.548240909
     0.572672045  0.523304091  0.468542273
     0.620727045  0.423735000  0.498431364
     0.551095682  0.399841364  0.531686364
     0.556052500  0.410969545  0.451759091
     0.401658864  0.551424091  0.505683182
     0.493612500  0.600158636  0.514251364
     0.487551136  0.497080909  0.500602273

  ion indices of the primitive-cell ions
   primitive index   ion index
                 1           1
                 2           2
                 3           3
                 4           4
                 5           5
                 6           6
                 7           7
                 8           8
                 9           9
                10          10
                11          11
                12          12
                13          13

----------------------------------------------------------------------------------------



 KPOINTS: auto                                    

Automatic generation of k-mesh.
 Grid dimensions read from file:
 generate k-points for:    1    1    1

 Generating k-lattice:

  Cartesian coordinates                     Fractional coordinates (reciprocal lattice)
     0.045454545  0.000000000  0.000000000     1.000000000  0.000000000  0.000000000
     0.000000000  0.045454545  0.000000000     0.000000000  1.000000000  0.000000000
     0.000000000  0.000000000  0.045454545     0.000000000  0.000000000  1.000000000

  Length of vectors
     0.045454545  0.045454545  0.045454545

  Shift w.r.t. Gamma in fractional coordinates (k-lattice)
     0.000000000  0.000000000  0.000000000

 
 Subroutine IBZKPT returns following result:
 ===========================================
 
 Found      1 irreducible k-points:
 
 Following reciprocal coordinates:
            Coordinates               Weight
  0.000000  0.000000  0.000000      1.000000
 
 Following cartesian coordinates:
            Coordinates               Weight
  0.000000  0.000000  0.000000      1.000000
 


--------------------------------------------------------------------------------------------------------




 Dimension of arrays:
   k-points           NKPTS =      1   k-points in BZ     NKDIM =      1   number of bands    NBANDS=     32
   number of dos      NEDOS =    301   number of ions     NIONS =     13
   non local maximal  LDIM  =      4   non local SUM 2l+1 LMDIM =      8
   total plane-waves  NPLWV = ******
   max r-space proj   IRMAX =      1   max aug-charges    IRDMAX=   9667
   dimension x,y,z NGX =   240 NGY =  240 NGZ =  240
   dimension x,y,z NGXF=   480 NGYF=  480 NGZF=  480
   support grid    NGXF=   480 NGYF=  480 NGZF=  480
   ions per type =               3   7   1   2
   NGX,Y,Z   is equivalent  to a cutoff of  18.14, 18.14, 18.14 a.u.
   NGXF,Y,Z  is equivalent  to a cutoff of  36.27, 36.27, 36.27 a.u.

 SYSTEM =  unknown system                          
 POSCAR =   C  H  N  O                             

 Startparameter for this run:
   NWRITE =      2    write-flag & timer
   PREC   = accura    normal or accurate (medium, high low for compatibility)
   ISTART =      0    job   : 0-new  1-cont  2-samecut
   ICHARG =      2    charge: 1-file 2-atom 10-const
   ISPIN  =      1    spin polarized calculation?
   LNONCOLLINEAR =      F non collinear calculations
   LSORBIT =      F    spin-orbit coupling
   INIWAV =      1    electr: 0-lowe 1-rand  2-diag
   LASPH  =      T    aspherical Exc in radial PAW
 Electronic Relaxation 1
   ENCUT  = 1000.0 eV  73.50 Ry    8.57 a.u.  56.73 56.73 56.73*2*pi/ulx,y,z
   ENINI  = 1000.0     initial cutoff
   ENAUG  = 1000.0 eV  augmentation charge cutoff
   NELM   =     60;   NELMIN=  2; NELMDL= -5     # of ELM steps 
   EDIFF  = 0.1E-06   stopping-criterion for ELM
   LREAL  =      F    real-space projection
   NLSPLINE    = F    spline interpolate recip. space projectors
   LCOMPAT=      F    compatible to vasp.4.4
   GGA_COMPAT  = T    GGA compatible to vasp.4.4-vasp.4.6
   LMAXPAW     = -100 max onsite density
   LMAXMIX     =    2 max onsite mixed and CHGCAR
   VOSKOWN=      0    Vosko Wilk Nusair interpolation
   ROPT   =    0.00000   0.00000   0.00000   0.00000
 Ionic relaxation
   EDIFFG = 0.1E-05   stopping-criterion for IOM
   NSW    =      0    number of steps for IOM
   NBLOCK =      1;   KBLOCK =      1    inner block; outer block 
   IBRION =     -1    ionic relax: 0-MD 1-quasi-New 2-CG
   NFREE  =      0    steps in history (QN), initial steepest desc. (CG)
   ISIF   =      0    stress and relaxation
   IWAVPR =     10    prediction:  0-non 1-charg 2-wave 3-comb
   ISYM   =      2    0-nonsym 1-usesym 2-fastsym
   LCORR  =      T    Harris-Foulkes like correction to forces

   POTIM  = 0.5000    time-step for ionic-motion
   TEIN   =    0.0    initial temperature
   TEBEG  =    0.0;   TEEND  =   0.0 temperature during run
   SMASS  =  -3.00    Nose mass-parameter (am)
   estimated Nose-frequenzy (Omega)   =  0.10E-29 period in steps = 0.13E+47 mass=  -0.111E-25a.u.
   SCALEE = 1.0000    scale energy and forces
   NPACO  =    256;   APACO  = 10.0  distance and # of slots for P.C.
   PSTRESS=    0.0 pullay stress

  Mass of Ions in am
   POMASS =  12.01  1.00 14.00 16.00
  Ionic Valenz
   ZVAL   =   4.00  1.00  5.00  6.00
  Atomic Wigner-Seitz radii
   RWIGS  =  -1.00 -1.00 -1.00 -1.00
  virtual crystal weights 
   VCA    =   1.00  1.00  1.00  1.00
   NELECT =      36.0000    total number of electrons
   NUPDOWN=      -1.0000    fix difference up-down

 DOS related values:
   EMIN   =  10.00;   EMAX   =-10.00  energy-range for DOS
   EFERMI =   0.00;   METHOD = LEGACY      
   ISMEAR =     0;   SIGMA  =   0.01  broadening in eV -4-tet -1-fermi 0-gaus

 Electronic relaxation 2 (details)
   IALGO  =     58    algorithm
   LDIAG  =      T    sub-space diagonalisation (order eigenvalues)
   LSUBROT=      F    optimize rotation matrix (better conditioning)
   TURBO    =      0    0=normal 1=particle mesh
   IRESTART =      0    0=no restart 2=restart with 2 vectors
   NREBOOT  =      0    no. of reboots
   NMIN     =      0    reboot dimension
   EREF     =   0.00    reference energy to select bands
   IMIX   =      4    mixing-type and parameters
     AMIX     =   0.40;   BMIX     =  1.00
     AMIX_MAG =   1.60;   BMIX_MAG =  1.00
     AMIN     =   0.10
     WC   =   100.;   INIMIX=   1;  MIXPRE=   1;  MAXMIX= -45

 Intra band minimization:
   WEIMIN = 0.0000     energy-eigenvalue tresh-hold
   EBREAK =  0.78E-09  absolut break condition
   DEPER  =   0.30     relativ break condition  

   TIME   =   0.40     timestep for ELM

  volume/ion in A,a.u.               =     819.08      5527.40
  Fermi-wavevector in a.u.,A,eV,Ry     =   0.245708  0.464321  0.821418  0.060373
  Thomas-Fermi vector in A             =   1.056973

 Write flags
   LWAVE        =      F    write WAVECAR
   LDOWNSAMPLE  =      F    k-point downsampling of WAVECAR
   LCHARG       =      F    write CHGCAR
   LVTOT        =      F    write LOCPOT, total local potential
   LVHAR        =      F    write LOCPOT, Hartree potential only
   LELF         =      F    write electronic localiz. function (ELF)
   LORBIT       =      0    0 simple, 1 ext, 2 COOP (PROOUT), +10 PAW based schemes


 Dipole corrections
   LMONO  =      F    monopole corrections only (constant potential shift)
   LDIPOL =      F    correct potential (dipole corrections)
   IDIPOL =      0    1-x, 2-y, 3-z, 4-all directions 
   EPSILON=  1.0000000 bulk dielectric constant

 Exchange correlation treatment:
   GGA     =    --    GGA type
   LEXCH   =     8    internal setting for exchange type
   LIBXC   =     F    Libxc                    
   VOSKOWN =     0    Vosko Wilk Nusair interpolation
   LHFCALC =     F    Hartree Fock is set to
   LHFONE  =     F    Hartree Fock one center treatment
   AEXX    =    0.0000 exact exchange contribution

 Linear response parameters
   LEPSILON=     F    determine dielectric tensor
   LRPA    =     F    only Hartree local field effects (RPA)
   LNABLA  =     F    use nabla operator in PAW spheres
   LVEL    =     F    velocity operator in full k-point grid
   CSHIFT  =0.1000    complex shift for real part using Kramers Kronig
   OMEGAMAX=  -1.0    maximum frequency
   DEG_THRESHOLD= 0.2000000E-02 threshold for treating states as degnerate
   RTIME   =   -0.100 relaxation time in fs
  (WPLASMAI=    0.000 imaginary part of plasma frequency in eV, 0.658/RTIME)
   DFIELD  = 0.0000000 0.0000000 0.0000000 field for delta impulse in time

  Optional k-point grid parameters
   LKPOINTS_OPT  =     F    use optional k-point grid
   KPOINTS_OPT_MODE=     1    mode for optional k-point grid

 Orbital magnetization related:
   ORBITALMAG=     F  switch on orbital magnetization
   LCHIMAG   =     F  perturbation theory with respect to B field
   DQ        =  0.001000  dq finite difference perturbation B field
   LLRAUG    =     F  two centre corrections for induced B field
   LBONE     =     F  B-component reconstruction in AE one-centre
   LVGVCALC  =     T  calculate vGv susceptibility
   LVGVAPPL  =     F  apply vGv susceptibility instead of pGv for G=0

 Random number generation:
   RANDOM_GENERATOR = DEFAULT
   PCG_SEED         = not used


--------------------------------------------------------------------------------------------------------


 Static calculation
 charge density and potential will be updated during run
 non-spin polarized calculation
 Conjugate gradient for all bands (Freysoldt, et al. PRB 79, 241103 (2009))
 preconditioned conjugated gradient                                        
 perform sub-space diagonalisation
    before iterative eigenvector-optimisation
 modified Broyden-mixing scheme, WC =      100.0
 initial mixing is a Kerker type mixing with AMIX =  0.4000 and BMIX =      1.0000
 Hartree-type preconditioning will be used
 using additional bands           14
 reciprocal scheme for non local part
 use partial core corrections
 no Harris-corrections to forces 
 use gradient corrections 
 use of overlap-Matrix (Vanderbilt PP)
 Gauss-broadening in eV      SIGMA  =   0.01


--------------------------------------------------------------------------------------------------------


  energy-cutoff  :     1000.00
  volume of cell :    10648.00
      direct lattice vectors                 reciprocal lattice vectors
    22.000000000  0.000000000  0.000000000     0.045454545  0.000000000  0.000000000
     0.000000000 22.000000000  0.000000000     0.000000000  0.045454545  0.000000000
     0.000000000  0.000000000 22.000000000     0.000000000  0.000000000  0.045454545

  length of vectors
    22.000000000 22.000000000 22.000000000     0.045454545  0.045454545  0.045454545



 k-points in units of 2pi/SCALE and weight: auto                                    
   0.00000000  0.00000000  0.00000000       1.000

 k-points in reciprocal lattice and weights: auto                                    
   0.00000000  0.00000000  0.00000000       1.000

 position of ions in fractional coordinates (direct lattice) 
   0.46379659  0.55412318  0.50702682
   0.55341205  0.49410955  0.50407955
   0.57116341  0.42818455  0.49598727
   0.37927295  0.59128773  0.50182182
   0.38096250  0.51305727  0.49121318
   0.56786659  0.51219682  0.54824091
   0.57267205  0.52330409  0.46854227
   0.62072705  0.42373500  0.49843136
   0.55109568  0.39984136  0.53168636
   0.55605250  0.41096955  0.45175909
   0.40165886  0.55142409  0.50568318
   0.49361250  0.60015864  0.51425136
   0.48755114  0.49708091  0.50060227

 position of ions in cartesian coordinates  (Angst):
  10.20352500 12.19071000 11.15459000
  12.17506500 10.87041000 11.08975000
  12.56559500  9.42006000 10.91172000
   8.34400500 13.00833000 11.04008000
   8.38117500 11.28726000 10.80669000
  12.49306500 11.26833000 12.06130000
  12.59878500 11.51269000 10.30793000
  13.65599500  9.32217000 10.96549000
  12.12410500  8.79651000 11.69710000
  12.23315500  9.04133000  9.93870000
   8.83649500 12.13133000 11.12503000
  10.85947500 13.20349000 11.31353000
  10.72612500 10.93578000 11.01325000



--------------------------------------------------------------------------------------------------------


 use parallel FFT for orbitals z direction half grid
 k-point   1 :   0.0000 0.0000 0.0000  plane waves:  381993

 maximum and minimum number of plane-waves per node :     11948    11928

 maximum number of plane-waves:    381993
 maximum index in each direction: 
   IXMAX=   56   IYMAX=   56   IZMAX=   56
   IXMIN=  -56   IYMIN=  -56   IZMIN=    0


 parallel 3D FFT for wavefunctions:
    minimum data exchange during FFTs selected (reduces bandwidth)
 parallel 3D FFT for charge:
    minimum data exchange during FFTs selected (reduces bandwidth)


 total amount of memory used by VASP MPI-rank0   132905. kBytes
=======================================================================

   base      :      30000. kBytes
   nonl-proj :       5538. kBytes
   fftplans  :      24880. kBytes
   grid      :      70194. kBytes
   one-center:          1. kBytes
   wavefun   :       2292. kBytes

     INWAV:  cpu time      0.0001: real time      0.0002
 Broyden mixing: mesh for mixing (old mesh)
   NGX =113   NGY =113   NGZ =113
  (NGX  =480   NGY  =480   NGZ  =480)
  gives a total of ****** points

 initial charge density was supplied:
 charge density of overlapping atoms calculated
 number of electron      36.0000000 magnetization 
 keeping initial charge density in first step


--------------------------------------------------------------------------------------------------------


 Maximum index for augmentation-charges          207 (set IRDMAX)


--------------------------------------------------------------------------------------------------------


 First call to EWALD:  gamma=   0.081
 Maximum number of real-space cells 3x 3x 3
 Maximum number of reciprocal cells 3x 3x 3

    FEWALD:  cpu time      0.0073: real time      0.0073


--------------------------------------- Ionic step        1  -------------------------------------------




--------------------------------------- Iteration      1(   1)  ---------------------------------------


    POTLOK:  cpu time      1.6321: real time      1.6347
    SETDIJ:  cpu time      0.3253: real time      0.3260
    TRIAL :  cpu time      3.9876: real time      3.9922
    CORREC:  cpu time      0.0031: real time      0.0031
    --------------------------------------------
      LOOP:  cpu time      5.9564: real time      5.9643

 eigenvalue-minimisations  :    80
 total energy-change (2. order) : 0.3539062E+03  (-0.9577528E+03)
 number of electron      36.0000000 magnetization 
 augmentation part       36.0000000 magnetization 

 Free energy of the ion-electron system (eV)
  ---------------------------------------------------
  alpha Z        PSCENC =         0.35173684
  Ewald energy   TEWEN  =      2549.12670408
  -Hartree energ DENC   =     -3773.64700077
  -exchange      EXHF   =         0.00000000
  -V(xc)+E(xc)   XCENC  =       135.85938010
  PAW double counting   =      1221.64718229    -1221.66661374
  entropy T*S    EENTRO =        -0.00051979
  eigenvalues    EBANDS =      -215.90179193
  atomic energy  EATOM  =      1658.13713092
  ---------------------------------------------------
  free energy    TOTEN  =       353.90620799 eV

  energy without entropy =      353.90672778  energy(sigma->0) =      353.90646789


--------------------------------------------------------------------------------------------------------




--------------------------------------- Iteration      1(   2)  ---------------------------------------


    TRIAL :  cpu time      4.8799: real time      4.8821
    CORREC:  cpu time      0.0001: real time      0.0001
    --------------------------------------------
      LOOP:  cpu time      4.8969: real time      4.9128

 eigenvalue-minimisations  :   112
 total energy-change (2. order) :-0.2039427E+03  (-0.1997913E+03)
 number of electron      36.0000000 magnetization 
 augmentation part       36.0000000 magnetization 

 Free energy of the ion-electron system (eV)
  ---------------------------------------------------
  alpha Z        PSCENC =         0.35173684
  Ewald energy   TEWEN  =      2549.12670408
  -Hartree energ DENC   =     -3773.64700077
  -exchange      EXHF   =         0.00000000
  -V(xc)+E(xc)   XCENC  =       135.85938010
  PAW double counting   =      1221.64718229    -1221.66661374
  entropy T*S    EENTRO =        -0.00000000
  eigenvalues    EBANDS =      -419.84498957
  atomic energy  EATOM  =      1658.13713092
  ---------------------------------------------------
  free energy    TOTEN  =       149.96353015 eV

  energy without entropy =      149.96353015  energy(sigma->0) =      149.96353015


--------------------------------------------------------------------------------------------------------




--------------------------------------- Iteration      1(   3)  ---------------------------------------


    TRIAL :  cpu time      5.1215: real time      5.1238
    CORREC:  cpu time      0.0001: real time      0.0001
    --------------------------------------------
      LOOP:  cpu time      5.1365: real time      5.1542

 eigenvalue-minimisations  :   120
 total energy-change (2. order) :-0.1842380E+03  (-0.1818419E+03)
 number of electron      36.0000000 magnetization 
 augmentation part       36.0000000 magnetization 

 Free energy of the ion-electron system (eV)
  ---------------------------------------------------
  alpha Z        PSCENC =         0.35173684
  Ewald energy   TEWEN  =      2549.12670408
  -Hartree energ DENC   =     -3773.64700077
  -exchange      EXHF   =         0.00000000
  -V(xc)+E(xc)   XCENC  =       135.85938010
  PAW double counting   =      1221.64718229    -1221.66661374
  entropy T*S    EENTRO =        -0.00000000
  eigenvalues    EBANDS =      -604.08294680
  atomic energy  EATOM  =      1658.13713092
  ---------------------------------------------------
  free energy    TOTEN  =       -34.27442708 eV

  energy without entropy =      -34.27442708  energy(sigma->0) =      -34.27442708


--------------------------------------------------------------------------------------------------------




--------------------------------------- Iteration      1(   4)  ---------------------------------------


    TRIAL :  cpu time      3.9667: real time      3.9689
    CORREC:  cpu time      0.0001: real time      0.0001
    --------------------------------------------
      LOOP:  cpu time      4.0062: real time      4.0086

 eigenvalue-minimisations  :    80
 total energy-change (2. order) :-0.6152446E+02  (-0.6138518E+02)
 number of electron      36.0000000 magnetization 
 augmentation part       36.0000000 magnetization 

 Free energy of the ion-electron system (eV)
  ---------------------------------------------------
  alpha Z        PSCENC =         0.35173684
  Ewald energy   TEWEN  =      2549.12670408
  -Hartree energ DENC   =     -3773.64700077
  -exchange      EXHF   =         0.00000000
  -V(xc)+E(xc)   XCENC  =       135.85938010
  PAW double counting   =      1221.64718229    -1221.66661374
  entropy T*S    EENTRO =        -0.00000000
  eigenvalues    EBANDS =      -665.60740421
  atomic energy  EATOM  =      1658.13713092
  ---------------------------------------------------
  free energy    TOTEN  =       -95.79888450 eV

  energy without entropy =      -95.79888450  energy(sigma->0) =      -95.79888450


--------------------------------------------------------------------------------------------------------




--------------------------------------- Iteration      1(   5)  ---------------------------------------


    TRIAL :  cpu time      3.9766: real time      3.9788
    CORREC:  cpu time      0.0001: real time      0.0001
    CHARGE:  cpu time      0.7034: real time      0.7060
    --------------------------------------------
      LOOP:  cpu time      4.6925: real time      4.7145

 eigenvalue-minimisations  :    80
 total energy-change (2. order) :-0.5884246E+01  (-0.5832717E+01)
 number of electron      36.0000000 magnetization 
 augmentation part        0.1127588 magnetization 

 Free energy of the ion-electron system (eV)
  ---------------------------------------------------
  alpha Z        PSCENC =         0.35173684
  Ewald energy   TEWEN  =      2549.12670408
  -Hartree energ DENC   =     -3773.64700077
  -exchange      EXHF   =         0.00000000
  -V(xc)+E(xc)   XCENC  =       135.85938010
  PAW double counting   =      1221.64718229    -1221.66661374
  entropy T*S    EENTRO =        -0.00000000
  eigenvalues    EBANDS =      -671.49165010
  atomic energy  EATOM  =      1658.13713092
  ---------------------------------------------------
  free energy    TOTEN  =      -101.68313039 eV

  energy without entropy =     -101.68313039  energy(sigma->0) =     -101.68313039


--------------------------------------------------------------------------------------------------------




--------------------------------------- Iteration      1(   6)  ---------------------------------------


    POTLOK:  cpu time      1.6046: real time      1.6050
    SETDIJ:  cpu time      0.3070: real time      0.3070
    TRIAL :  cpu time      3.4087: real time      3.4115
    CORREC:  cpu time      3.4521: real time      3.4542
    CHARGE:  cpu time      0.6653: real time      0.6658
    --------------------------------------------
      LOOP:  cpu time      9.4519: real time      9.4741

 eigenvalue-minimisations  :     0
 total energy-change (2. order) : 0.2486441E+02  (-0.5860763E+01)
 number of electron      36.0000000 magnetization 
 augmentation part        0.0844068 magnetization 

 Free energy of the ion-electron system (eV)
  ---------------------------------------------------
  alpha Z        PSCENC =         0.35173684
  Ewald energy   TEWEN  =      2549.12670408
  -Hartree energ DENC   =     -4059.40168198
  -exchange      EXHF   =         0.00000000
  -V(xc)+E(xc)   XCENC  =       155.16961335
  PAW double counting   =     17471.89306301   -17473.81001117
  entropy T*S    EENTRO =        -0.00000000
  eigenvalues    EBANDS =      -378.28527244
  atomic energy  EATOM  =      1658.13713092
  ---------------------------------------------------
  free energy    TOTEN  =       -76.81871739 eV

  energy without entropy =      -76.81871739  energy(sigma->0) =      -76.81871739


--------------------------------------------------------------------------------------------------------




--------------------------------------- Iteration      1(   7)  ---------------------------------------


    POTLOK:  cpu time      1.6732: real time      1.6743
    SETDIJ:  cpu time      0.2171: real time      0.2171
    TRIAL :  cpu time      3.4230: real time      3.4247
    CORREC:  cpu time      3.4461: real time      3.4480
    CHARGE:  cpu time      0.6652: real time      0.6654
    --------------------------------------------
      LOOP:  cpu time      9.4546: real time      9.4596

 eigenvalue-minimisations  :     0
 total energy-change (2. order) :-0.5895591E+01  (-0.8023350E+00)
 number of electron      36.0000000 magnetization 
 augmentation part        0.0649270 magnetization 

 Free energy of the ion-electron system (eV)
  ---------------------------------------------------
  alpha Z        PSCENC =         0.35173684
  Ewald energy   TEWEN  =      2549.12670408
  -Hartree energ DENC   =     -3937.89392859
  -exchange      EXHF   =         0.00000000
  -V(xc)+E(xc)   XCENC  =       148.14466898
  PAW double counting   =     19908.17820585   -19908.99556671
  entropy T*S    EENTRO =        -0.00000000
  eigenvalues    EBANDS =      -499.76325976
  atomic energy  EATOM  =      1658.13713092
  ---------------------------------------------------
  free energy    TOTEN  =       -82.71430839 eV

  energy without entropy =      -82.71430839  energy(sigma->0) =      -82.71430839


--------------------------------------------------------------------------------------------------------




--------------------------------------- Iteration      1(   8)  ---------------------------------------


    POTLOK:  cpu time      1.5859: real time      1.5863
    SETDIJ:  cpu time      0.3041: real time      0.3041
    TRIAL :  cpu time      3.4002: real time      3.4021
    CORREC:  cpu time      3.4536: real time      3.4550
    CHARGE:  cpu time      0.6653: real time      0.6659
    --------------------------------------------
      LOOP:  cpu time      9.4279: real time      9.4643

 eigenvalue-minimisations  :     0
 total energy-change (2. order) :-0.8081763E+00  (-0.3642463E+00)
 number of electron      36.0000000 magnetization 
 augmentation part        0.0673432 magnetization 

 Free energy of the ion-electron system (eV)
  ---------------------------------------------------
  alpha Z        PSCENC =         0.35173684
  Ewald energy   TEWEN  =      2549.12670408
  -Hartree energ DENC   =     -3941.93034233
  -exchange      EXHF   =         0.00000000
  -V(xc)+E(xc)   XCENC  =       148.17092987
  PAW double counting   =     20632.37032475   -20633.07503160
  entropy T*S    EENTRO =        -0.00000000
  eigenvalues    EBANDS =      -496.67393722
  atomic energy  EATOM  =      1658.13713092
  ---------------------------------------------------
  free energy    TOTEN  =       -83.52248470 eV

  energy without entropy =      -83.52248470  energy(sigma->0) =      -83.52248470


--------------------------------------------------------------------------------------------------------




--------------------------------------- Iteration      1(   9)  ---------------------------------------


    POTLOK:  cpu time      1.5899: real time      1.5908
    SETDIJ:  cpu time      0.3046: real time      0.3046
    TRIAL :  cpu time      3.3954: real time      3.3966
    CORREC:  cpu time      3.4587: real time      3.4606
    CHARGE:  cpu time      0.6663: real time      0.6668
    --------------------------------------------
      LOOP:  cpu time      9.4310: real time      9.4505

 eigenvalue-minimisations  :     0
 total energy-change (2. order) :-0.3625874E+00  (-0.1576094E+00)
 number of electron      36.0000000 magnetization 
 augmentation part        0.0702700 magnetization 

 Free energy of the ion-electron system (eV)
  ---------------------------------------------------
  alpha Z        PSCENC =         0.35173684
  Ewald energy   TEWEN  =      2549.12670408
  -Hartree energ DENC   =     -3941.86319443
  -exchange      EXHF   =         0.00000000
  -V(xc)+E(xc)   XCENC  =       148.06018535
  PAW double counting   =     21788.22288459   -21788.86479523
  entropy T*S    EENTRO =        -0.00000000
  eigenvalues    EBANDS =      -497.05572421
  atomic energy  EATOM  =      1658.13713092
  ---------------------------------------------------
  free energy    TOTEN  =       -83.88507210 eV

  energy without entropy =      -83.88507210  energy(sigma->0) =      -83.88507210


--------------------------------------------------------------------------------------------------------




--------------------------------------- Iteration      1(  10)  ---------------------------------------


    POTLOK:  cpu time      1.6055: real time      1.6064
    SETDIJ:  cpu time      0.3083: real time      0.3083
    TRIAL :  cpu time      3.4015: real time      3.4035
    CORREC:  cpu time      3.4726: real time      3.4740
    CHARGE:  cpu time      0.6674: real time      0.6679
    --------------------------------------------
      LOOP:  cpu time      9.4853: real time      9.4903

 eigenvalue-minimisations  :     0
 total energy-change (2. order) :-0.1559960E+00  (-0.5683560E-01)
 number of electron      36.0000000 magnetization 
 augmentation part        0.0728582 magnetization 

 Free energy of the ion-electron system (eV)
  ---------------------------------------------------
  alpha Z        PSCENC =         0.35173684
  Ewald energy   TEWEN  =      2549.12670408
  -Hartree energ DENC   =     -3937.25905136
  -exchange      EXHF   =         0.00000000
  -V(xc)+E(xc)   XCENC  =       147.90720231
  PAW double counting   =     22014.79130586   -22015.42275821
  entropy T*S    EENTRO =        -0.00000000
  eigenvalues    EBANDS =      -501.67333848
  atomic energy  EATOM  =      1658.13713092
  ---------------------------------------------------
  free energy    TOTEN  =       -84.04106805 eV

  energy without entropy =      -84.04106805  energy(sigma->0) =      -84.04106805


--------------------------------------------------------------------------------------------------------




--------------------------------------- Iteration      1(  11)  ---------------------------------------


    POTLOK:  cpu time      1.6075: real time      1.6082
    SETDIJ:  cpu time      0.3106: real time      0.3106
    TRIAL :  cpu time      3.3995: real time      3.4009
    CORREC:  cpu time      3.4776: real time      3.4791
    CHARGE:  cpu time      0.6665: real time      0.6666
    --------------------------------------------
      LOOP:  cpu time      9.4775: real time      9.4957

 eigenvalue-minimisations  :     0
 total energy-change (2. order) :-0.5652734E-01  (-0.1889636E-01)
 number of electron      36.0000000 magnetization 
 augmentation part        0.0740806 magnetization 

 Free energy of the ion-electron system (eV)
  ---------------------------------------------------
  alpha Z        PSCENC =         0.35173684
  Ewald energy   TEWEN  =      2549.12670408
  -Hartree energ DENC   =     -3935.35540779
  -exchange      EXHF   =         0.00000000
  -V(xc)+E(xc)   XCENC  =       147.88155264
  PAW double counting   =     21730.14384166   -21730.80390828
  entropy T*S    EENTRO =        -0.00000000
  eigenvalues    EBANDS =      -503.57924545
  atomic energy  EATOM  =      1658.13713092
  ---------------------------------------------------
  free energy    TOTEN  =       -84.09759539 eV

  energy without entropy =      -84.09759539  energy(sigma->0) =      -84.09759539


--------------------------------------------------------------------------------------------------------




--------------------------------------- Iteration      1(  12)  ---------------------------------------


    POTLOK:  cpu time      1.6087: real time      1.6095
    SETDIJ:  cpu time      0.3422: real time      0.3422
    TRIAL :  cpu time      3.4019: real time      3.4036
    CORREC:  cpu time      3.4759: real time      3.4772
    CHARGE:  cpu time      0.6678: real time      0.6683
    --------------------------------------------
      LOOP:  cpu time      9.5142: real time      9.5339

 eigenvalue-minimisations  :     0
 total energy-change (2. order) :-0.1885157E-01  (-0.5845178E-02)
 number of electron      36.0000000 magnetization 
 augmentation part        0.0739821 magnetization 

 Free energy of the ion-electron system (eV)
  ---------------------------------------------------
  alpha Z        PSCENC =         0.35173684
  Ewald energy   TEWEN  =      2549.12670408
  -Hartree energ DENC   =     -3935.18714726
  -exchange      EXHF   =         0.00000000
  -V(xc)+E(xc)   XCENC  =       147.86986269
  PAW double counting   =     21527.22300209   -21527.89825381
  entropy T*S    EENTRO =        -0.00000000
  eigenvalues    EBANDS =      -503.73948252
  atomic energy  EATOM  =      1658.13713092
  ---------------------------------------------------
  free energy    TOTEN  =       -84.11644697 eV

  energy without entropy =      -84.11644697  energy(sigma->0) =      -84.11644697


--------------------------------------------------------------------------------------------------------




--------------------------------------- Iteration      1(  13)  ---------------------------------------


    POTLOK:  cpu time      1.6375: real time      1.6382
    SETDIJ:  cpu time      0.2784: real time      0.2785
    TRIAL :  cpu time      3.4002: real time      3.4021
    CORREC:  cpu time      3.4784: real time      3.4800
    CHARGE:  cpu time      0.6662: real time      0.6663
    --------------------------------------------
      LOOP:  cpu time      9.4801: real time      9.5117

 eigenvalue-minimisations  :     0
 total energy-change (2. order) :-0.5842664E-02  (-0.1946219E-02)
 number of electron      36.0000000 magnetization 
 augmentation part        0.0738613 magnetization 

 Free energy of the ion-electron system (eV)
  ---------------------------------------------------
  alpha Z        PSCENC =         0.35173684
  Ewald energy   TEWEN  =      2549.12670408
  -Hartree energ DENC   =     -3935.01011331
  -exchange      EXHF   =         0.00000000
  -V(xc)+E(xc)   XCENC  =       147.85433929
  PAW double counting   =     21422.22246760   -21422.89949254
  entropy T*S    EENTRO =        -0.00000000
  eigenvalues    EBANDS =      -503.90506251
  atomic energy  EATOM  =      1658.13713092
  ---------------------------------------------------
  free energy    TOTEN  =       -84.12228963 eV

  energy without entropy =      -84.12228963  energy(sigma->0) =      -84.12228963


--------------------------------------------------------------------------------------------------------




--------------------------------------- Iteration      1(  14)  ---------------------------------------


    POTLOK:  cpu time      1.6547: real time      1.6552
    SETDIJ:  cpu time      0.2640: real time      0.2640
    TRIAL :  cpu time      3.4018: real time      3.4035
    CORREC:  cpu time      3.4760: real time      3.4775
    CHARGE:  cpu time      0.6679: real time      0.6685
    --------------------------------------------
      LOOP:  cpu time      9.4862: real time      9.5054

 eigenvalue-minimisations  :     0
 total energy-change (2. order) :-0.1946597E-02  (-0.6717041E-03)
 number of electron      36.0000000 magnetization 
 augmentation part        0.0738151 magnetization 

 Free energy of the ion-electron system (eV)
  ---------------------------------------------------
  alpha Z        PSCENC =         0.35173684
  Ewald energy   TEWEN  =      2549.12670408
  -Hartree energ DENC   =     -3934.89293240
  -exchange      EXHF   =         0.00000000
  -V(xc)+E(xc)   XCENC  =       147.84935158
  PAW double counting   =     21352.39220043   -21353.06978946
  entropy T*S    EENTRO =        -0.00000000
  eigenvalues    EBANDS =      -504.01863821
  atomic energy  EATOM  =      1658.13713092
  ---------------------------------------------------
  free energy    TOTEN  =       -84.12423623 eV

  energy without entropy =      -84.12423623  energy(sigma->0) =      -84.12423623


--------------------------------------------------------------------------------------------------------




--------------------------------------- Iteration      1(  15)  ---------------------------------------


    POTLOK:  cpu time      1.6166: real time      1.6175
    SETDIJ:  cpu time      0.3081: real time      0.3081
    TRIAL :  cpu time      3.3937: real time      3.3955
    CORREC:  cpu time      3.5109: real time      3.5129
    CHARGE:  cpu time      0.6690: real time      0.6691
    --------------------------------------------
      LOOP:  cpu time      9.5297: real time      9.5347

 eigenvalue-minimisations  :     0
 total energy-change (2. order) :-0.6716082E-03  (-0.2551273E-03)
 number of electron      36.0000000 magnetization 
 augmentation part        0.0738099 magnetization 

 Free energy of the ion-electron system (eV)
  ---------------------------------------------------
  alpha Z        PSCENC =         0.35173684
  Ewald energy   TEWEN  =      2549.12670408
  -Hartree energ DENC   =     -3934.99224289
  -exchange      EXHF   =         0.00000000
  -V(xc)+E(xc)   XCENC  =       147.85154156
  PAW double counting   =     21301.67443806   -21302.35219378
  entropy T*S    EENTRO =        -0.00000000
  eigenvalues    EBANDS =      -503.92202262
  atomic energy  EATOM  =      1658.13713092
  ---------------------------------------------------
  free energy    TOTEN  =       -84.12490784 eV

  energy without entropy =      -84.12490784  energy(sigma->0) =      -84.12490784


--------------------------------------------------------------------------------------------------------




--------------------------------------- Iteration      1(  16)  ---------------------------------------


    POTLOK:  cpu time      1.6126: real time      1.6133
    SETDIJ:  cpu time      0.3164: real time      0.3164
    TRIAL :  cpu time      3.4021: real time      3.4043
    CORREC:  cpu time      3.4760: real time      3.4777
    CHARGE:  cpu time      0.6658: real time      0.6663
    --------------------------------------------
      LOOP:  cpu time      9.4891: real time      9.5089

 eigenvalue-minimisations  :     0
 total energy-change (2. order) :-0.2555201E-03  (-0.1007680E-03)
 number of electron      36.0000000 magnetization 
 augmentation part        0.0738275 magnetization 

 Free energy of the ion-electron system (eV)
  ---------------------------------------------------
  alpha Z        PSCENC =         0.35173684
  Ewald energy   TEWEN  =      2549.12670408
  -Hartree energ DENC   =     -3935.08749441
  -exchange      EXHF   =         0.00000000
  -V(xc)+E(xc)   XCENC  =       147.85347266
  PAW double counting   =     21263.00271723   -21263.68029723
  entropy T*S    EENTRO =        -0.00000000
  eigenvalues    EBANDS =      -503.82913344
  atomic energy  EATOM  =      1658.13713092
  ---------------------------------------------------
  free energy    TOTEN  =       -84.12516336 eV

  energy without entropy =      -84.12516336  energy(sigma->0) =      -84.12516336


--------------------------------------------------------------------------------------------------------




--------------------------------------- Iteration      1(  17)  ---------------------------------------


    POTLOK:  cpu time      1.6119: real time      1.6126
    SETDIJ:  cpu time      0.3101: real time      0.3102
    TRIAL :  cpu time      3.4040: real time      3.4057
    CORREC:  cpu time      3.4782: real time      3.4803
    CHARGE:  cpu time      0.6644: real time      0.6645
    --------------------------------------------
      LOOP:  cpu time      9.4815: real time      9.5038

 eigenvalue-minimisations  :     0
 total energy-change (2. order) :-0.1013566E-03  (-0.3705211E-04)
 number of electron      36.0000000 magnetization 
 augmentation part        0.0738539 magnetization 

 Free energy of the ion-electron system (eV)
  ---------------------------------------------------
  alpha Z        PSCENC =         0.35173684
  Ewald energy   TEWEN  =      2549.12670408
  -Hartree energ DENC   =     -3935.11163051
  -exchange      EXHF   =         0.00000000
  -V(xc)+E(xc)   XCENC  =       147.85347507
  PAW double counting   =     21240.64689350   -21241.32427117
  entropy T*S    EENTRO =        -0.00000000
  eigenvalues    EBANDS =      -503.80530344
  atomic energy  EATOM  =      1658.13713092
  ---------------------------------------------------
  free energy    TOTEN  =       -84.12526471 eV

  energy without entropy =      -84.12526471  energy(sigma->0) =      -84.12526471


--------------------------------------------------------------------------------------------------------




--------------------------------------- Iteration      1(  18)  ---------------------------------------


    POTLOK:  cpu time      1.6137: real time      1.6141
    SETDIJ:  cpu time      0.3094: real time      0.3094
    TRIAL :  cpu time      3.4105: real time      3.4126
    CORREC:  cpu time      3.4776: real time      3.4790
    CHARGE:  cpu time      0.6653: real time      0.6658
    --------------------------------------------
      LOOP:  cpu time      9.5111: real time      9.5157

 eigenvalue-minimisations  :     0
 total energy-change (2. order) :-0.3734020E-04  (-0.1298870E-04)
 number of electron      36.0000000 magnetization 
 augmentation part        0.0738508 magnetization 

 Free energy of the ion-electron system (eV)
  ---------------------------------------------------
  alpha Z        PSCENC =         0.35173684
  Ewald energy   TEWEN  =      2549.12670408
  -Hartree energ DENC   =     -3935.14980169
  -exchange      EXHF   =         0.00000000
  -V(xc)+E(xc)   XCENC  =       147.85544012
  PAW double counting   =     21236.47202191   -21237.14952166
  entropy T*S    EENTRO =        -0.00000000
  eigenvalues    EBANDS =      -503.76901256
  atomic energy  EATOM  =      1658.13713092
  ---------------------------------------------------
  free energy    TOTEN  =       -84.12530205 eV

  energy without entropy =      -84.12530205  energy(sigma->0) =      -84.12530205


--------------------------------------------------------------------------------------------------------




--------------------------------------- Iteration      1(  19)  ---------------------------------------


    POTLOK:  cpu time      1.6158: real time      1.6165
    SETDIJ:  cpu time      0.3053: real time      0.3053
    TRIAL :  cpu time      3.3974: real time      3.3990
    CORREC:  cpu time      3.4741: real time      3.4759
    CHARGE:  cpu time      0.6665: real time      0.6666
    --------------------------------------------
      LOOP:  cpu time      9.4721: real time      9.4946

 eigenvalue-minimisations  :     0
 total energy-change (2. order) :-0.1308028E-04  (-0.4689847E-05)
 number of electron      36.0000000 magnetization 
 augmentation part        0.0738380 magnetization 

 Free energy of the ion-electron system (eV)
  ---------------------------------------------------
  alpha Z        PSCENC =         0.35173684
  Ewald energy   TEWEN  =      2549.12670408
  -Hartree energ DENC   =     -3935.15226476
  -exchange      EXHF   =         0.00000000
  -V(xc)+E(xc)   XCENC  =       147.85603258
  PAW double counting   =     21242.93885405   -21243.61623696
  entropy T*S    EENTRO =        -0.00000000
  eigenvalues    EBANDS =      -503.76727188
  atomic energy  EATOM  =      1658.13713092
  ---------------------------------------------------
  free energy    TOTEN  =       -84.12531513 eV

  energy without entropy =      -84.12531513  energy(sigma->0) =      -84.12531513


--------------------------------------------------------------------------------------------------------




--------------------------------------- Iteration      1(  20)  ---------------------------------------


    POTLOK:  cpu time      1.6538: real time      1.6543
    SETDIJ:  cpu time      0.2661: real time      0.2661
    TRIAL :  cpu time      3.3991: real time      3.4007
    CORREC:  cpu time      3.4764: real time      3.4777
    CHARGE:  cpu time      0.6656: real time      0.6660
    --------------------------------------------
      LOOP:  cpu time      9.4832: real time      9.5070

 eigenvalue-minimisations  :     0
 total energy-change (2. order) :-0.4702215E-05  (-0.1932135E-05)
 number of electron      36.0000000 magnetization 
 augmentation part        0.0738391 magnetization 

 Free energy of the ion-electron system (eV)
  ---------------------------------------------------
  alpha Z        PSCENC =         0.35173684
  Ewald energy   TEWEN  =      2549.12670408
  -Hartree energ DENC   =     -3935.14485727
  -exchange      EXHF   =         0.00000000
  -V(xc)+E(xc)   XCENC  =       147.85584594
  PAW double counting   =     21251.32583976   -21252.00308072
  entropy T*S    EENTRO =        -0.00000000
  eigenvalues    EBANDS =      -503.77463938
  atomic energy  EATOM  =      1658.13713092
  ---------------------------------------------------
  free energy    TOTEN  =       -84.12531984 eV

  energy without entropy =      -84.12531984  energy(sigma->0) =      -84.12531984


--------------------------------------------------------------------------------------------------------




--------------------------------------- Iteration      1(  21)  ---------------------------------------


    POTLOK:  cpu time      1.6138: real time      1.6145
    SETDIJ:  cpu time      0.3069: real time      0.3069
    TRIAL :  cpu time      3.4158: real time      3.4173
    CORREC:  cpu time      3.4745: real time      3.4760
    CHARGE:  cpu time      0.6680: real time      0.6686
    --------------------------------------------
      LOOP:  cpu time      9.5159: real time      9.5203

 eigenvalue-minimisations  :     0
 total energy-change (2. order) :-0.1865879E-05  (-0.7538936E-06)
 number of electron      36.0000000 magnetization 
 augmentation part        0.0738285 magnetization 

 Free energy of the ion-electron system (eV)
  ---------------------------------------------------
  alpha Z        PSCENC =         0.35173684
  Ewald energy   TEWEN  =      2549.12670408
  -Hartree energ DENC   =     -3935.15187025
  -exchange      EXHF   =         0.00000000
  -V(xc)+E(xc)   XCENC  =       147.85639545
  PAW double counting   =     21257.40998240   -21258.08730445
  entropy T*S    EENTRO =        -0.00000000
  eigenvalues    EBANDS =      -503.76809668
  atomic energy  EATOM  =      1658.13713092
  ---------------------------------------------------
  free energy    TOTEN  =       -84.12532170 eV

  energy without entropy =      -84.12532170  energy(sigma->0) =      -84.12532170


--------------------------------------------------------------------------------------------------------




--------------------------------------- Iteration      1(  22)  ---------------------------------------


    POTLOK:  cpu time      1.6112: real time      1.6116
    SETDIJ:  cpu time      0.3112: real time      0.3112
    TRIAL :  cpu time      3.4010: real time      3.4027
    CORREC:  cpu time      3.4800: real time      3.4813
    CHARGE:  cpu time      0.6669: real time      0.6675
    --------------------------------------------
      LOOP:  cpu time      9.4855: real time      9.5044

 eigenvalue-minimisations  :     0
 total energy-change (2. order) :-0.7174312E-06  (-0.3463018E-06)
 number of electron      36.0000000 magnetization 
 augmentation part        0.0738329 magnetization 

 Free energy of the ion-electron system (eV)
  ---------------------------------------------------
  alpha Z        PSCENC =         0.35173684
  Ewald energy   TEWEN  =      2549.12670408
  -Hartree energ DENC   =     -3935.13904490
  -exchange      EXHF   =         0.00000000
  -V(xc)+E(xc)   XCENC  =       147.85578158
  PAW double counting   =     21260.52030183   -21261.19753172
  entropy T*S    EENTRO =        -0.00000000
  eigenvalues    EBANDS =      -503.78040105
  atomic energy  EATOM  =      1658.13713092
  ---------------------------------------------------
  free energy    TOTEN  =       -84.12532242 eV

  energy without entropy =      -84.12532242  energy(sigma->0) =      -84.12532242


--------------------------------------------------------------------------------------------------------




--------------------------------------- Iteration      1(  23)  ---------------------------------------


    POTLOK:  cpu time      1.6131: real time      1.6142
    SETDIJ:  cpu time      0.3365: real time      0.3365
    TRIAL :  cpu time      3.3999: real time      3.4012
    CORREC:  cpu time      3.4763: real time      3.4783
    CHARGE:  cpu time      0.6656: real time      0.6659
    --------------------------------------------
      LOOP:  cpu time      9.5053: real time      9.5273

 eigenvalue-minimisations  :     0
 total energy-change (2. order) :-0.2944580E-06  (-0.1028409E-06)
 number of electron      36.0000000 magnetization 
 augmentation part        0.0738290 magnetization 

 Free energy of the ion-electron system (eV)
  ---------------------------------------------------
  alpha Z        PSCENC =         0.35173684
  Ewald energy   TEWEN  =      2549.12670408
  -Hartree energ DENC   =     -3935.14693909
  -exchange      EXHF   =         0.00000000
  -V(xc)+E(xc)   XCENC  =       147.85619776
  PAW double counting   =     21261.13647053   -21261.81380206
  entropy T*S    EENTRO =        -0.00000000
  eigenvalues    EBANDS =      -503.77282169
  atomic energy  EATOM  =      1658.13713092
  ---------------------------------------------------
  free energy    TOTEN  =       -84.12532271 eV

  energy without entropy =      -84.12532271  energy(sigma->0) =      -84.12532271


--------------------------------------------------------------------------------------------------------




--------------------------------------- Iteration      1(  24)  ---------------------------------------


    POTLOK:  cpu time      1.6114: real time      1.6117
    SETDIJ:  cpu time      0.3104: real time      0.3104
    TRIAL :  cpu time      3.4026: real time      3.4044
    CORREC:  cpu time      3.4787: real time      3.4799
    EDDIAG:  cpu time      0.8859: real time      0.8864
    CHARGE:  cpu time      0.6669: real time      0.6674
    --------------------------------------------
      LOOP:  cpu time     10.3702: real time     10.3939

 eigenvalue-minimisations  :     0
 total energy-change (2. order) :-0.9980067E-07  (-0.5283584E-07)
 number of electron      36.0000000 magnetization 
 augmentation part        0.0738283 magnetization 

 Free energy of the ion-electron system (eV)
  ---------------------------------------------------
  alpha Z        PSCENC =         0.35173684
  Ewald energy   TEWEN  =      2549.12670408
  -Hartree energ DENC   =     -3935.14216097
  -exchange      EXHF   =         0.00000000
  -V(xc)+E(xc)   XCENC  =       147.85590464
  PAW double counting   =     21260.93310214   -21261.61039682
  entropy T*S    EENTRO =        -0.00000000
  eigenvalues    EBANDS =      -503.77734364
  atomic energy  EATOM  =      1658.13713092
  ---------------------------------------------------
  free energy    TOTEN  =       -84.12532281 eV

  energy without entropy =      -84.12532281  energy(sigma->0) =      -84.12532281


--------------------------------------------------------------------------------------------------------


  average scaling for gradient   1.1047


 average (electrostatic) potential at core
  the test charge radii are     0.5770  0.4325  0.5902  0.5955
  (the norm of the test charge is              1.0000)
       1 -91.8070       2 -89.5647       3 -88.1773       4 -49.8095       5 -49.8222
       6 -47.1224       7 -47.1222       8 -47.3146       9 -47.1418      10 -47.1508
      11-107.2346      12-122.3941      13-124.2423



 E-fermi :  -6.5776     XC(G=0):  -0.1357     alpha+bet : -0.0715

 Fermi energy:        -6.5775809125

 k-point     1 :       0.0000    0.0000    0.0000
  band No.  band energies     occupation 
      1     -28.8724      2.00000
      2     -26.4521      2.00000
      3     -23.8666      2.00000
      4     -20.0071      2.00000
      5     -16.7945      2.00000
      6     -15.0367      2.00000
      7     -14.1716      2.00000
      8     -13.0436      2.00000
      9     -12.4326      2.00000
     10     -11.3768      2.00000
     11     -10.8427      2.00000
     12     -10.2533      2.00000
     13      -9.9026      2.00000
     14      -9.1287      2.00000
     15      -8.8287      2.00000
     16      -7.3081      2.00000
     17      -6.9218      2.00000
     18      -6.6491      2.00000
     19      -0.2651      0.00000
     20       0.0444      0.00000
     21       0.1425      0.00000
     22       0.2918      0.00000
     23       0.3074      0.00000
     24       0.3445      0.00000
     25       0.3578      0.00000
     26       0.3724      0.00000
     27       0.5392      0.00000
     28       0.5404      0.00000
     29       0.5424      0.00000
     30       0.5689      0.00000
     31       0.6225      0.00000
     32       0.7541      0.00000


--------------------------------------------------------------------------------------------------------


 soft charge-density along one line, spin component           1
         0         1         2         3         4         5         6         7         8         9
 total charge-density along one line

 pseudopotential strength for first ion, spin component:           1
 12.768  21.486  -0.008  -0.000  -0.001  -0.016  -0.000  -0.003
 21.486  36.157  -0.014  -0.000  -0.002  -0.026  -0.000  -0.004
 -0.008  -0.014  -3.301   0.001   0.002  -5.919   0.001   0.003
 -0.000  -0.000   0.001  -3.307   0.001   0.001  -5.929   0.001
 -0.001  -0.002   0.002   0.001  -3.301   0.003   0.001  -5.918
 -0.016  -0.026  -5.919   0.001   0.003 -10.591   0.002   0.005
 -0.000  -0.000   0.001  -5.929   0.001   0.002 -10.608   0.003
 -0.003  -0.004   0.003   0.001  -5.918   0.005   0.003 -10.589
 total augmentation occupancy for first ion, spin component:           1
 10.780  -4.304   1.236   0.247   0.735  -0.545  -0.112  -0.372
 -4.304   1.809  -0.528  -0.117  -0.382   0.242   0.052   0.199
  1.236  -0.528   9.717   0.855   1.406  -3.738  -0.373  -0.596
  0.247  -0.117   0.855   3.689   0.337  -0.373  -1.098  -0.136
  0.735  -0.382   1.406   0.337   8.762  -0.595  -0.136  -3.246
 -0.545   0.242  -3.738  -0.373  -0.595   1.476   0.162   0.257
 -0.112   0.052  -0.373  -1.098  -0.136   0.162   0.331   0.057
 -0.372   0.199  -0.596  -0.136  -3.246   0.257   0.057   1.227


------------------------ aborting loop because EDIFF is reached ----------------------------------------


    FORLOC:  cpu time      0.0505: real time      0.0505
    FORNL :  cpu time      0.0372: real time      0.0375
    FORCOR:  cpu time      1.7223: real time      1.7238
    OFIELD:  cpu time      0.0063: real time      0.0066

 VOLUME and BASIS-vectors are now :
 -----------------------------------------------------------------------------
  energy-cutoff  :     1000.00
  volume of cell :    10648.00
      direct lattice vectors                 reciprocal lattice vectors
    22.000000000  0.000000000  0.000000000     0.045454545  0.000000000  0.000000000
     0.000000000 22.000000000  0.000000000     0.000000000  0.045454545  0.000000000
     0.000000000  0.000000000 22.000000000     0.000000000  0.000000000  0.045454545

  length of vectors
    22.000000000 22.000000000 22.000000000     0.045454545  0.045454545  0.045454545


 FORCES acting on ions:
    Electron-Ion                     Ewald-Force                    Non-Local-Force
 -----------------------------------------------------------------------------------------------
   0.850E+02 -.242E+02 0.247E+01   -.836E+02 0.310E+02 -.217E+01   -.124E+01 -.683E+01 -.291E+00
   -.169E+03 -.553E+00 -.102E+02   0.180E+03 0.133E+01 0.110E+02   -.115E+02 -.780E+00 -.791E+00
   -.925E+02 0.148E+03 0.150E+02   0.921E+02 -.149E+03 -.152E+02   0.363E+00 0.110E+01 0.148E+00
   0.692E+02 -.736E+02 0.691E+01   -.728E+02 0.801E+02 -.744E+01   0.374E+01 -.671E+01 0.554E+00
   0.710E+02 0.639E+02 0.261E+02   -.743E+02 -.701E+02 -.283E+02   0.345E+01 0.642E+01 0.233E+01
   -.484E+02 -.198E+02 -.685E+02   0.500E+02 0.220E+02 0.735E+02   -.173E+01 -.223E+01 -.519E+01
   -.558E+02 -.368E+02 0.542E+02   0.580E+02 0.402E+02 -.582E+02   -.230E+01 -.353E+01 0.414E+01
   -.738E+02 0.241E+02 -.119E+01   0.792E+02 -.247E+02 0.145E+01   -.563E+01 0.580E+00 -.268E+00
   0.984E+01 0.610E+02 -.452E+02   -.121E+02 -.642E+02 0.491E+02   0.230E+01 0.328E+01 -.406E+01
   0.330E+01 0.462E+02 0.610E+02   -.496E+01 -.482E+02 -.658E+02   0.173E+01 0.201E+01 0.504E+01
   0.275E+03 -.228E+02 -.129E+02   -.278E+03 0.212E+02 0.235E+02   0.304E+01 0.155E+01 -.108E+02
   -.142E+03 -.376E+03 -.538E+02   0.172E+03 0.421E+03 0.610E+02   -.296E+02 -.463E+02 -.729E+01
   0.837E+02 0.222E+03 0.359E+02   -.106E+03 -.261E+03 -.425E+02   0.223E+02 0.398E+02 0.660E+01
 -----------------------------------------------------------------------------------------------
   0.151E+02 0.117E+02 0.984E+01   0.000E+00 0.568E-13 -.213E-13   -.151E+02 -.117E+02 -.984E+01


 POSITION                                       TOTAL-FORCE (eV/Angst)
 -----------------------------------------------------------------------------------
     10.20352     12.19071     11.15459         0.224997      0.160736      0.032126
     12.17506     10.87041     11.08975        -0.124973      0.023666     -0.000789
     12.56559      9.42006     10.91172        -0.024616      0.021341      0.000371
      8.34401     13.00833     11.04008         0.187372     -0.267329      0.021340
      8.38118     11.28726     10.80669         0.178108      0.266187      0.100130
     12.49307     11.26833     12.06130        -0.082470     -0.076215     -0.199997
     12.59879     11.51269     10.30793        -0.108345     -0.126967      0.159264
     13.65599      9.32217     10.96549        -0.220622      0.029813     -0.009580
     12.12411      8.79651     11.69710         0.088920      0.130301     -0.159743
     12.23315      9.04133      9.93870         0.066042      0.079958      0.199034
      8.83649     12.13133     11.12503         0.172671      0.012077     -0.101277
     10.85947     13.20349     11.31353        -0.459406     -0.746446     -0.113031
     10.72612     10.93578     11.01325         0.102321      0.492876      0.072152
 -----------------------------------------------------------------------------------
    total drift:                               -0.000575     -0.000545     -0.000123


--------------------------------------------------------------------------------------------------------



  FREE ENERGIE OF THE ION-ELECTRON SYSTEM (eV)
  ---------------------------------------------------
  free  energy   TOTEN  =       -84.12532281 eV

  energy  without entropy=      -84.12532281  energy(sigma->0) =      -84.12532281



--------------------------------------------------------------------------------------------------------


    POTLOK:  cpu time      2.2142: real time      2.2154


--------------------------------------------------------------------------------------------------------


 stress matrix after NEB project (eV)
      0.00000      0.00000      0.00000
      0.00000      0.00000      0.00000
      0.00000      0.00000      0.00000
  FORCES: max atom, RMS     0.883748    0.356312
  FORCE total and by dimension    1.284701    0.746446
  Stress total and by dimension    0.000000    0.000000
     LOOP+:  cpu time    209.8146: real time    210.2314
    4ORBIT:  cpu time      0.0000: real time      0.0000

 total amount of memory used by VASP MPI-rank0   132905. kBytes
=======================================================================

   base      :      30000. kBytes
   nonl-proj :       5538. kBytes
   fftplans  :      24880. kBytes
   grid      :      70194. kBytes
   one-center:          1. kBytes
   wavefun   :       2292. kBytes

  
  
 General timing and accounting informations for this job:
 ========================================================
  
                  Total CPU time used (sec):      238.667
                            User time (sec):      217.014
                          System time (sec):       21.653
                         Elapsed time (sec):      247.144
  
                   Maximum memory used (kb):      349668.
                   Average memory used (kb):          N/A
  
                          Minor page faults:       549191
                          Major page faults:          616
                 Voluntary context switches:         7280
