 vasp.6.4.1 05Apr23 (build Jun  6 2023 14:46:38) gamma-only                      
 executed on        HPECrayEX_GCC date 2024.08.21  17:59:56
 running  512 mpi-ranks, with    1 threads/rank, on    4 nodes
 distrk:  each k-point on  512 cores,    1 groups
 distr:  one band on NCORE= 128 cores,    4 groups


--------------------------------------------------------------------------------------------------------


 INCAR:
   ALGO = Conjugate
   NPAR = 4
   ISMEAR = 0
   SIGMA = 0.01
   PREC = Accurate
   EDIFF = 1E-7
   ENCUT = 1000
   ISIF = 0
   GGA = OR
   LUSE_VDW = .TRUE.
   AGGAC = 0.0000
   LASPH = .TRUE.
   LWAVE = .FALSE.
   LCHARG = .FALSE.

 POTCAR:    PAW_PBE C_h 06Feb2004                 
 POTCAR:    PAW_PBE H_h 06Feb2004                 
 POTCAR:    PAW_PBE N_h 06Feb2004                 
 POTCAR:    PAW_PBE O_h 06Feb2004                 
 -----------------------------------------------------------------------------
|                                                                             |
|               ----> ADVICE to this user running VASP <----                  |
|                                                                             |
|     You have switched on vdW-DFT.                                           |
|     This routine was written and supplied by Jiri Klimes. We recommend      |
|     that you carefully read and cite the following publications:            |
|       J. Klimes, D.R. Bowler, A. Michelides                                 |
|          J. Phys.: Cond Matt. 22 022201 (2010)                              |
|       J. Klimes, D.R. Bowler, A. Michelides                                 |
|          Phys. Rev. B. 83, 195131 (2011)                                    |
|     and references therein.                                                 |
|                                                                             |
 -----------------------------------------------------------------------------

 POTCAR:    PAW_PBE C_h 06Feb2004                 
   VRHFIN =C: s2p2                                                                                  
   LEXCH  = PE                                                                                      
   EATOM  =   147.1560 eV,   10.8157 Ry                                                             
                                                                                                    
   TITEL  = PAW_PBE C_h 06Feb2004                                                                   
   LULTRA =        F    use ultrasoft PP ?                                                          
   IUNSCR =        1    unscreen: 0-lin 1-nonlin 2-no                                               
   RPACOR =    0.800    partial core radius                                                         
   POMASS =   12.011; ZVAL   =    4.000    mass and valenz                                          
   RCORE  =    1.100    outmost cutoff radius                                                       
   RWIGS  =    1.630; RWIGS  =    0.863    wigner-seitz radius (au A)                               
   ENMAX  =  700.000; ENMIN  =  500.000 eV                                                          
   ICORE  =        2    local potential                                                             
   LCOR   =        T    correct aug charges                                                         
   LPAW   =        T    paw PP                                                                      
   EAUG   =  946.768                                                                                
   DEXC   =    0.000                                                                                
   RMAX   =    1.128    core radius for proj-oper                                                   
   RAUG   =    1.300    factor for augmentation sphere                                              
   RDEP   =    1.162    radius for radial grids                                                     
   RDEPT  =    1.088    core radius for aug-charge                                                  
                                                                                                    
   Atomic configuration                                                                             
    4 entries                                                                                       
     n  l   j            E        occ.                                                              
     1  0  0.50      -273.3789   2.0000                                                             
     2  0  0.50       -13.7508   2.0000                                                             
     2  1  0.50        -5.2854   2.0000                                                             
     3  2  1.50        -5.4423   0.0000                                                             
   Description                                                                                      
     l       E           TYP  RCUT    TYP  RCUT                                                     
     0    -13.7508458     23  1.100                                                                 
     0     -8.2022199     23  1.100                                                                 
     1     -5.2854383     23  1.100                                                                 
     1      1.1560700     23  1.100                                                                 
     2     -5.4423304      7  1.100                                                                 
  local pseudopotential read in
  partial core-charges read in
  partial kinetic energy density read in
  atomic valenz-charges read in
  non local Contribution for L=           0  read in
    real space projection operators read in
  non local Contribution for L=           0  read in
    real space projection operators read in
  non local Contribution for L=           1  read in
    real space projection operators read in
  non local Contribution for L=           1  read in
    real space projection operators read in
    PAW grid and wavefunctions read in

   number of l-projection  operators is LMAX  =           4
   number of lm-projection operators is LMMAX =           8

 POTCAR:    PAW_PBE H_h 06Feb2004                 
   VRHFIN =H: ultrasoft test                                                                        
   LEXCH  = PE                                                                                      
   EATOM  =    12.4884 eV,    0.9179 Ry                                                             
                                                                                                    
   TITEL  = PAW_PBE H_h 06Feb2004                                                                   
   LULTRA =        F    use ultrasoft PP ?                                                          
   IUNSCR =        0    unscreen: 0-lin 1-nonlin 2-no                                               
   RPACOR =    0.000    partial core radius                                                         
   POMASS =    1.000; ZVAL   =    1.000    mass and valenz                                          
   RCORE  =    0.800    outmost cutoff radius                                                       
   RWIGS  =    0.700; RWIGS  =    0.370    wigner-seitz radius (au A)                               
   ENMAX  =  700.000; ENMIN  =  350.000 eV                                                          
   RCLOC  =    0.701    cutoff for local pot                                                        
   LCOR   =        T    correct aug charges                                                         
   LPAW   =        T    paw PP                                                                      
   EAUG   = 1000.000                                                                                
   RMAX   =    0.819    core radius for proj-oper                                                   
   RAUG   =    1.000    factor for augmentation sphere                                              
   RDEP   =    0.817    radius for radial grids                                                     
   RDEPT  =    0.817    core radius for aug-charge                                                  
                                                                                                    
   Atomic configuration                                                                             
    2 entries                                                                                       
     n  l   j            E        occ.                                                              
     1  0  0.50        -6.4927   1.0000                                                             
     2  1  0.50        -3.4015   0.0000                                                             
   Description                                                                                      
     l       E           TYP  RCUT    TYP  RCUT                                                     
     0     -6.4927493     23  0.800                                                                 
     0      6.8029130     23  0.800                                                                 
     1     -6.8029130     23  0.800                                                                 
  local pseudopotential read in
  atomic valenz-charges read in
  non local Contribution for L=           0  read in
    real space projection operators read in
  non local Contribution for L=           0  read in
    real space projection operators read in
  non local Contribution for L=           1  read in
    real space projection operators read in
    PAW grid and wavefunctions read in

   number of l-projection  operators is LMAX  =           3
   number of lm-projection operators is LMMAX =           5

 POTCAR:    PAW_PBE N_h 06Feb2004                 
   VRHFIN =N: s2p3                                                                                  
   LEXCH  = PE                                                                                      
   EATOM  =   264.5486 eV,   19.4438 Ry                                                             
                                                                                                    
   TITEL  = PAW_PBE N_h 06Feb2004                                                                   
   LULTRA =        F    use ultrasoft PP ?                                                          
   IUNSCR =        1    unscreen: 0-lin 1-nonlin 2-no                                               
   RPACOR =    0.800    partial core radius                                                         
   POMASS =   14.001; ZVAL   =    5.000    mass and valenz                                          
   RCORE  =    1.100    outmost cutoff radius                                                       
   RWIGS  =    1.480; RWIGS  =    0.783    wigner-seitz radius (au A)                               
   ENMAX  =  700.000; ENMIN  =  500.000 eV                                                          
   ICORE  =        2    local potential                                                             
   LCOR   =        T    correct aug charges                                                         
   LPAW   =        T    paw PP                                                                      
   EAUG   =  904.640                                                                                
   DEXC   =    0.000                                                                                
   RMAX   =    1.127    core radius for proj-oper                                                   
   RAUG   =    1.300    factor for augmentation sphere                                              
   RDEP   =    1.115    radius for radial grids                                                     
   RDEPT  =    1.106    core radius for aug-charge                                                  
                                                                                                    
   Atomic configuration                                                                             
    4 entries                                                                                       
     n  l   j            E        occ.                                                              
     1  0  0.50      -384.7179   2.0000                                                             
     2  0  0.50       -18.5828   2.0000                                                             
     2  1  0.50        -7.0898   3.0000                                                             
     3  2  1.50        -6.8029   0.0000                                                             
   Description                                                                                      
     l       E           TYP  RCUT    TYP  RCUT                                                     
     0    -18.5828117     23  1.100                                                                 
     0    -15.0750597     23  1.100                                                                 
     1     -7.0897851     23  1.100                                                                 
     1     -1.9663412     23  1.100                                                                 
     2     -6.8029130      7  1.100                                                                 
  local pseudopotential read in
  partial core-charges read in
  partial kinetic energy density read in
  kinetic energy density of atom read in
  atomic valenz-charges read in
  non local Contribution for L=           0  read in
    real space projection operators read in
  non local Contribution for L=           0  read in
    real space projection operators read in
  non local Contribution for L=           1  read in
    real space projection operators read in
  non local Contribution for L=           1  read in
    real space projection operators read in
    PAW grid and wavefunctions read in

   number of l-projection  operators is LMAX  =           4
   number of lm-projection operators is LMMAX =           8

 POTCAR:    PAW_PBE O_h 06Feb2004                 
   VRHFIN =O: s2p4                                                                                  
   LEXCH  = PE                                                                                      
   EATOM  =   432.3788 eV,   31.7789 Ry                                                             
                                                                                                    
   TITEL  = PAW_PBE O_h 06Feb2004                                                                   
   LULTRA =        F    use ultrasoft PP ?                                                          
   IUNSCR =        1    unscreen: 0-lin 1-nonlin 2-no                                               
   RPACOR =    0.800    partial core radius                                                         
   POMASS =   16.000; ZVAL   =    6.000    mass and valenz                                          
   RCORE  =    1.100    outmost cutoff radius                                                       
   RWIGS  =    1.400; RWIGS  =    0.741    wigner-seitz radius (au A)                               
   ENMAX  =  700.000; ENMIN  =  500.000 eV                                                          
   ICORE  =        2    local potential                                                             
   LCOR   =        T    correct aug charges                                                         
   LPAW   =        T    paw PP                                                                      
   EAUG   =  888.804                                                                                
   DEXC   =    0.000                                                                                
   RMAX   =    1.128    core radius for proj-oper                                                   
   RAUG   =    1.300    factor for augmentation sphere                                              
   RDEP   =    1.125    radius for radial grids                                                     
   RDEPT  =    1.088    core radius for aug-charge                                                  
                                                                                                    
   Atomic configuration                                                                             
    4 entries                                                                                       
     n  l   j            E        occ.                                                              
     1  0  0.50      -514.6923   2.0000                                                             
     2  0  0.50       -23.9615   2.0000                                                             
     2  1  0.50        -9.0305   4.0000                                                             
     3  2  1.50        -9.5241   0.0000                                                             
   Description                                                                                      
     l       E           TYP  RCUT    TYP  RCUT                                                     
     0    -23.9615319     23  1.100                                                                 
     0    -25.3221145     23  1.100                                                                 
     1     -9.0304911     23  1.100                                                                 
     1     -5.4802209     23  1.100                                                                 
     2     -9.5240782      7  1.100                                                                 
  local pseudopotential read in
  partial core-charges read in
  partial kinetic energy density read in
  atomic valenz-charges read in
  non local Contribution for L=           0  read in
    real space projection operators read in
  non local Contribution for L=           0  read in
    real space projection operators read in
  non local Contribution for L=           1  read in
    real space projection operators read in
  non local Contribution for L=           1  read in
    real space projection operators read in
    PAW grid and wavefunctions read in

   number of l-projection  operators is LMAX  =           4
   number of lm-projection operators is LMMAX =           8

 -----------------------------------------------------------------------------
|                                                                             |
|               ----> ADVICE to this user running VASP <----                  |
|                                                                             |
|     You enforced a specific xc type in the INCAR file but a different       |
|     type was found in the POTCAR file.                                      |
|     I HOPE YOU KNOW WHAT YOU ARE DOING!                                     |
|                                                                             |
 -----------------------------------------------------------------------------

  PAW_PBE C_h 06Feb2004                 :
 energy of atom  1       EATOM= -147.1560
 kinetic energy error for atom=    0.0031 (will be added to EATOM!!)
  PAW_PBE H_h 06Feb2004                 :
 energy of atom  2       EATOM=  -12.4884
 kinetic energy error for atom=    0.0006 (will be added to EATOM!!)
  PAW_PBE N_h 06Feb2004                 :
 energy of atom  3       EATOM= -264.5486
 kinetic energy error for atom=    0.0081 (will be added to EATOM!!)
  PAW_PBE O_h 06Feb2004                 :
 energy of atom  4       EATOM= -432.3788
 kinetic energy error for atom=    0.0171 (will be added to EATOM!!)


 POSCAR:  C  H  N  O
  positions in cartesian coordinates
  No initial velocities read in
 exchange correlation table for  LEXCH =       41
   RHO(1)=    0.500       N(1)  =     2000
   RHO(2)=  100.500       N(2)  =     4000

 VTST: version 4.1, (05/19/21)

 CHAIN: initializing optimizer
 
 OPT: Using VASP Dynamics algorithm
 CHAIN: Read ICHAIN            0

 POSCAR:  C  H  N  O
  positions in cartesian coordinates
  No initial velocities read in



--------------------------------------------------------------------------------------------------------


 ion  position               nearest neighbor table
   1  0.464  0.554  0.507-  12 1.22  13 1.37  11 1.37
   2  0.553  0.494  0.504-   7 1.10   6 1.10  13 1.45   3 1.51
   3  0.571  0.428  0.496-   9 1.10  10 1.10   8 1.10   2 1.51
   4  0.379  0.591  0.502-  11 1.01
   5  0.381  0.513  0.491-  11 1.01
   6  0.568  0.512  0.548-   2 1.10
   7  0.573  0.523  0.469-   2 1.10
   8  0.621  0.424  0.498-   3 1.10
   9  0.551  0.400  0.532-   3 1.10
  10  0.556  0.411  0.452-   3 1.10
  11  0.402  0.551  0.506-   4 1.01   5 1.01   1 1.37
  12  0.494  0.600  0.514-   1 1.22
  13  0.488  0.497  0.501-   1 1.37   2 1.45

  LATTYP: Found a simple cubic cell.
 ALAT       =    22.0000000000
  
  Lattice vectors:
  
 A1 = (  22.0000000000,   0.0000000000,   0.0000000000)
 A2 = (   0.0000000000,  22.0000000000,   0.0000000000)
 A3 = (   0.0000000000,   0.0000000000,  22.0000000000)


Analysis of symmetry for initial positions (statically):
=====================================================================
 Subroutine PRICEL returns:
 Original cell was already a primitive cell.
 

 Routine SETGRP: Setting up the symmetry group for a 
 simple cubic supercell.


 Subroutine GETGRP returns: Found  1 space group operations
 (whereof  1 operations were pure point group operations)
 out of a pool of 48 trial point group operations.


The static configuration has the point symmetry C_1 .


Analysis of symmetry for dynamics (positions and initial velocities):
=====================================================================
 Subroutine PRICEL returns:
 Original cell was already a primitive cell.
 

 Routine SETGRP: Setting up the symmetry group for a 
 simple cubic supercell.


 Subroutine GETGRP returns: Found  1 space group operations
 (whereof  1 operations were pure point group operations)
 out of a pool of 48 trial point group operations.


The dynamic configuration has the point symmetry C_1 .


 Subroutine INISYM returns: Found  1 space group operations
 (whereof  1 operations are pure point group operations),
 and found     1 'primitive' translations


----------------------------------------------------------------------------------------

                                     Primitive cell                                     

  volume of cell :   10648.0000

  direct lattice vectors                    reciprocal lattice vectors
    22.000000000  0.000000000  0.000000000     0.045454545  0.000000000  0.000000000
     0.000000000 22.000000000  0.000000000     0.000000000  0.045454545  0.000000000
     0.000000000  0.000000000 22.000000000     0.000000000  0.000000000  0.045454545

  length of vectors
    22.000000000 22.000000000 22.000000000     0.045454545  0.045454545  0.045454545

  position of ions in fractional coordinates (direct lattice)
     0.463796591  0.554123182  0.507026818
     0.553412045  0.494109545  0.504079545
     0.571163409  0.428184545  0.495987273
     0.379272955  0.591287727  0.501821818
     0.380962500  0.513057273  0.491213182
     0.567866591  0.512196818  0.548240909
     0.572672045  0.523304091  0.468542273
     0.620727045  0.423735000  0.498431364
     0.551095682  0.399841364  0.531686364
     0.556052500  0.410969545  0.451759091
     0.401658864  0.551424091  0.505683182
     0.493612500  0.600158636  0.514251364
     0.487551136  0.497080909  0.500602273

  ion indices of the primitive-cell ions
   primitive index   ion index
                 1           1
                 2           2
                 3           3
                 4           4
                 5           5
                 6           6
                 7           7
                 8           8
                 9           9
                10          10
                11          11
                12          12
                13          13

----------------------------------------------------------------------------------------



 KPOINTS: auto                                    

Automatic generation of k-mesh.
 Grid dimensions read from file:
 generate k-points for:    1    1    1

 Generating k-lattice:

  Cartesian coordinates                     Fractional coordinates (reciprocal lattice)
     0.045454545  0.000000000  0.000000000     1.000000000  0.000000000  0.000000000
     0.000000000  0.045454545  0.000000000     0.000000000  1.000000000  0.000000000
     0.000000000  0.000000000  0.045454545     0.000000000  0.000000000  1.000000000

  Length of vectors
     0.045454545  0.045454545  0.045454545

  Shift w.r.t. Gamma in fractional coordinates (k-lattice)
     0.000000000  0.000000000  0.000000000

 
 Subroutine IBZKPT returns following result:
 ===========================================
 
 Found      1 irreducible k-points:
 
 Following reciprocal coordinates:
            Coordinates               Weight
  0.000000  0.000000  0.000000      1.000000
 
 Following cartesian coordinates:
            Coordinates               Weight
  0.000000  0.000000  0.000000      1.000000
 


--------------------------------------------------------------------------------------------------------




 Dimension of arrays:
   k-points           NKPTS =      1   k-points in BZ     NKDIM =      1   number of bands    NBANDS=     28
   number of dos      NEDOS =    301   number of ions     NIONS =     13
   non local maximal  LDIM  =      4   non local SUM 2l+1 LMDIM =      8
   total plane-waves  NPLWV = ******
   max r-space proj   IRMAX =      1   max aug-charges    IRDMAX=   9667
   dimension x,y,z NGX =   240 NGY =  240 NGZ =  240
   dimension x,y,z NGXF=   480 NGYF=  480 NGZF=  480
   support grid    NGXF=   480 NGYF=  480 NGZF=  480
   ions per type =               3   7   1   2
   NGX,Y,Z   is equivalent  to a cutoff of  18.14, 18.14, 18.14 a.u.
   NGXF,Y,Z  is equivalent  to a cutoff of  36.27, 36.27, 36.27 a.u.

 SYSTEM =  unknown system                          
 POSCAR =   C  H  N  O                             

 Startparameter for this run:
   NWRITE =      2    write-flag & timer
   PREC   = accura    normal or accurate (medium, high low for compatibility)
   ISTART =      0    job   : 0-new  1-cont  2-samecut
   ICHARG =      2    charge: 1-file 2-atom 10-const
   ISPIN  =      1    spin polarized calculation?
   LNONCOLLINEAR =      F non collinear calculations
   LSORBIT =      F    spin-orbit coupling
   INIWAV =      1    electr: 0-lowe 1-rand  2-diag
   LASPH  =      T    aspherical Exc in radial PAW
 Electronic Relaxation 1
   ENCUT  = 1000.0 eV  73.50 Ry    8.57 a.u.  56.73 56.73 56.73*2*pi/ulx,y,z
   ENINI  = 1000.0     initial cutoff
   ENAUG  = 1000.0 eV  augmentation charge cutoff
   NELM   =     60;   NELMIN=  2; NELMDL= -5     # of ELM steps 
   EDIFF  = 0.1E-06   stopping-criterion for ELM
   LREAL  =      F    real-space projection
   NLSPLINE    = F    spline interpolate recip. space projectors
   LCOMPAT=      F    compatible to vasp.4.4
   GGA_COMPAT  = T    GGA compatible to vasp.4.4-vasp.4.6
   LMAXPAW     = -100 max onsite density
   LMAXMIX     =    2 max onsite mixed and CHGCAR
   VOSKOWN=      0    Vosko Wilk Nusair interpolation
   ROPT   =    0.00000   0.00000   0.00000   0.00000
 Ionic relaxation
   EDIFFG = 0.1E-05   stopping-criterion for IOM
   NSW    =      0    number of steps for IOM
   NBLOCK =      1;   KBLOCK =      1    inner block; outer block 
   IBRION =     -1    ionic relax: 0-MD 1-quasi-New 2-CG
   NFREE  =      0    steps in history (QN), initial steepest desc. (CG)
   ISIF   =      0    stress and relaxation
   IWAVPR =     10    prediction:  0-non 1-charg 2-wave 3-comb
   ISYM   =      2    0-nonsym 1-usesym 2-fastsym
   LCORR  =      T    Harris-Foulkes like correction to forces

   POTIM  = 0.5000    time-step for ionic-motion
   TEIN   =    0.0    initial temperature
   TEBEG  =    0.0;   TEEND  =   0.0 temperature during run
   SMASS  =  -3.00    Nose mass-parameter (am)
   estimated Nose-frequenzy (Omega)   =  0.10E-29 period in steps = 0.13E+47 mass=  -0.111E-25a.u.
   SCALEE = 1.0000    scale energy and forces
   NPACO  =    256;   APACO  = 10.0  distance and # of slots for P.C.
   PSTRESS=    0.0 pullay stress

  Mass of Ions in am
   POMASS =  12.01  1.00 14.00 16.00
  Ionic Valenz
   ZVAL   =   4.00  1.00  5.00  6.00
  Atomic Wigner-Seitz radii
   RWIGS  =  -1.00 -1.00 -1.00 -1.00
  virtual crystal weights 
   VCA    =   1.00  1.00  1.00  1.00
   NELECT =      36.0000    total number of electrons
   NUPDOWN=      -1.0000    fix difference up-down

 DOS related values:
   EMIN   =  10.00;   EMAX   =-10.00  energy-range for DOS
   EFERMI =   0.00;   METHOD = LEGACY      
   ISMEAR =     0;   SIGMA  =   0.01  broadening in eV -4-tet -1-fermi 0-gaus

 Electronic relaxation 2 (details)
   IALGO  =     58    algorithm
   LDIAG  =      T    sub-space diagonalisation (order eigenvalues)
   LSUBROT=      F    optimize rotation matrix (better conditioning)
   TURBO    =      0    0=normal 1=particle mesh
   IRESTART =      0    0=no restart 2=restart with 2 vectors
   NREBOOT  =      0    no. of reboots
   NMIN     =      0    reboot dimension
   EREF     =   0.00    reference energy to select bands
   IMIX   =      4    mixing-type and parameters
     AMIX     =   0.40;   BMIX     =  1.00
     AMIX_MAG =   1.60;   BMIX_MAG =  1.00
     AMIN     =   0.10
     WC   =   100.;   INIMIX=   1;  MIXPRE=   1;  MAXMIX= -45

 Intra band minimization:
   WEIMIN = 0.0000     energy-eigenvalue tresh-hold
   EBREAK =  0.89E-09  absolut break condition
   DEPER  =   0.30     relativ break condition  

   TIME   =   0.40     timestep for ELM

  volume/ion in A,a.u.               =     819.08      5527.40
  Fermi-wavevector in a.u.,A,eV,Ry     =   0.245708  0.464321  0.821418  0.060373
  Thomas-Fermi vector in A             =   1.056973

 Write flags
   LWAVE        =      F    write WAVECAR
   LDOWNSAMPLE  =      F    k-point downsampling of WAVECAR
   LCHARG       =      F    write CHGCAR
   LVTOT        =      F    write LOCPOT, total local potential
   LVHAR        =      F    write LOCPOT, Hartree potential only
   LELF         =      F    write electronic localiz. function (ELF)
   LORBIT       =      0    0 simple, 1 ext, 2 COOP (PROOUT), +10 PAW based schemes


 Dipole corrections
   LMONO  =      F    monopole corrections only (constant potential shift)
   LDIPOL =      F    correct potential (dipole corrections)
   IDIPOL =      0    1-x, 2-y, 3-z, 4-all directions 
   EPSILON=  1.0000000 bulk dielectric constant

 Exchange correlation treatment:
   GGA     =    OR    GGA type
   LEXCH   =    41    internal setting for exchange type
   LIBXC   =     F    Libxc                    
   VOSKOWN =     0    Vosko Wilk Nusair interpolation
   LHFCALC =     F    Hartree Fock is set to
   LHFONE  =     F    Hartree Fock one center treatment
   AEXX    =    0.0000 exact exchange contribution

 vdW DFT:
   LUSE_VDW   =     T    switch on vdW DFT
   IVDW_NL    =     1    kernel type
   LSPIN_VDW  =     F    use spin-polarized vdW DFT
   Zab_VDW    =-.8491    correlation parameter
   PARAM1     =0.1234
   PARAM2     =1.0000
   PARAM3     =0.0000
   -- rVV10 --
   BPARAM     = 6.3000
   CPARAM     = 0.0093

 Linear response parameters
   LEPSILON=     F    determine dielectric tensor
   LRPA    =     F    only Hartree local field effects (RPA)
   LNABLA  =     F    use nabla operator in PAW spheres
   LVEL    =     F    velocity operator in full k-point grid
   CSHIFT  =0.1000    complex shift for real part using Kramers Kronig
   OMEGAMAX=  -1.0    maximum frequency
   DEG_THRESHOLD= 0.2000000E-02 threshold for treating states as degnerate
   RTIME   =   -0.100 relaxation time in fs
  (WPLASMAI=    0.000 imaginary part of plasma frequency in eV, 0.658/RTIME)
   DFIELD  = 0.0000000 0.0000000 0.0000000 field for delta impulse in time

  Optional k-point grid parameters
   LKPOINTS_OPT  =     F    use optional k-point grid
   KPOINTS_OPT_MODE=     1    mode for optional k-point grid

 Orbital magnetization related:
   ORBITALMAG=     F  switch on orbital magnetization
   LCHIMAG   =     F  perturbation theory with respect to B field
   DQ        =  0.001000  dq finite difference perturbation B field
   LLRAUG    =     F  two centre corrections for induced B field
   LBONE     =     F  B-component reconstruction in AE one-centre
   LVGVCALC  =     T  calculate vGv susceptibility
   LVGVAPPL  =     F  apply vGv susceptibility instead of pGv for G=0

 Random number generation:
   RANDOM_GENERATOR = DEFAULT
   PCG_SEED         = not used


--------------------------------------------------------------------------------------------------------


 Static calculation
 charge density and potential will be updated during run
 non-spin polarized calculation
 Conjugate gradient for all bands (Freysoldt, et al. PRB 79, 241103 (2009))
 preconditioned conjugated gradient                                        
 perform sub-space diagonalisation
    before iterative eigenvector-optimisation
 modified Broyden-mixing scheme, WC =      100.0
 initial mixing is a Kerker type mixing with AMIX =  0.4000 and BMIX =      1.0000
 Hartree-type preconditioning will be used
 using additional bands           10
 reciprocal scheme for non local part
 use partial core corrections
 no Harris-corrections to forces 
 use gradient corrections 
 use of overlap-Matrix (Vanderbilt PP)
 Gauss-broadening in eV      SIGMA  =   0.01


--------------------------------------------------------------------------------------------------------


  energy-cutoff  :     1000.00
  volume of cell :    10648.00
      direct lattice vectors                 reciprocal lattice vectors
    22.000000000  0.000000000  0.000000000     0.045454545  0.000000000  0.000000000
     0.000000000 22.000000000  0.000000000     0.000000000  0.045454545  0.000000000
     0.000000000  0.000000000 22.000000000     0.000000000  0.000000000  0.045454545

  length of vectors
    22.000000000 22.000000000 22.000000000     0.045454545  0.045454545  0.045454545



 k-points in units of 2pi/SCALE and weight: auto                                    
   0.00000000  0.00000000  0.00000000       1.000

 k-points in reciprocal lattice and weights: auto                                    
   0.00000000  0.00000000  0.00000000       1.000

 position of ions in fractional coordinates (direct lattice) 
   0.46379659  0.55412318  0.50702682
   0.55341205  0.49410955  0.50407955
   0.57116341  0.42818455  0.49598727
   0.37927295  0.59128773  0.50182182
   0.38096250  0.51305727  0.49121318
   0.56786659  0.51219682  0.54824091
   0.57267205  0.52330409  0.46854227
   0.62072705  0.42373500  0.49843136
   0.55109568  0.39984136  0.53168636
   0.55605250  0.41096955  0.45175909
   0.40165886  0.55142409  0.50568318
   0.49361250  0.60015864  0.51425136
   0.48755114  0.49708091  0.50060227

 position of ions in cartesian coordinates  (Angst):
  10.20352500 12.19071000 11.15459000
  12.17506500 10.87041000 11.08975000
  12.56559500  9.42006000 10.91172000
   8.34400500 13.00833000 11.04008000
   8.38117500 11.28726000 10.80669000
  12.49306500 11.26833000 12.06130000
  12.59878500 11.51269000 10.30793000
  13.65599500  9.32217000 10.96549000
  12.12410500  8.79651000 11.69710000
  12.23315500  9.04133000  9.93870000
   8.83649500 12.13133000 11.12503000
  10.85947500 13.20349000 11.31353000
  10.72612500 10.93578000 11.01325000



--------------------------------------------------------------------------------------------------------


 use parallel FFT for orbitals z direction half grid
 k-point   1 :   0.0000 0.0000 0.0000  plane waves:  381993

 maximum and minimum number of plane-waves per node :      2992     2977

 maximum number of plane-waves:    381993
 maximum index in each direction: 
   IXMAX=   56   IYMAX=   56   IZMAX=   56
   IXMIN=  -56   IYMIN=  -56   IZMIN=    0


 parallel 3D FFT for wavefunctions:
    minimum data exchange during FFTs selected (reduces bandwidth)
 parallel 3D FFT for charge:
    minimum data exchange during FFTs selected (reduces bandwidth)


 total amount of memory used by VASP MPI-rank0    64040. kBytes
=======================================================================

   base      :      30000. kBytes
   nonl-proj :       1384. kBytes
   fftplans  :      10395. kBytes
   grid      :      21258. kBytes
   one-center:          1. kBytes
   wavefun   :       1002. kBytes

     INWAV:  cpu time      0.0001: real time      0.0003
 Broyden mixing: mesh for mixing (old mesh)
   NGX =113   NGY =113   NGZ =113
  (NGX  =480   NGY  =480   NGZ  =480)
  gives a total of ****** points

 initial charge density was supplied:
 charge density of overlapping atoms calculated
 number of electron      36.0000000 magnetization 
 keeping initial charge density in first step


--------------------------------------------------------------------------------------------------------


 Maximum index for augmentation-charges            0 (set IRDMAX)


--------------------------------------------------------------------------------------------------------


 First call to EWALD:  gamma=   0.081
 Maximum number of real-space cells 3x 3x 3
 Maximum number of reciprocal cells 3x 3x 3

    FEWALD:  cpu time      0.0039: real time      0.0040


--------------------------------------- Ionic step        1  -------------------------------------------




--------------------------------------- Iteration      1(   1)  ---------------------------------------


vdW kernel read from vdw_kernel.bindat
  0.0000  0.2424  0.5071  0.7962  1.1119  1.4567  1.8333  2.2446  2.6937  3.1842
  3.7199  4.3049  4.9438  5.6415  6.4036  7.2358  8.1446  9.1372 10.2212 11.4050
 12.6979 14.1099 15.6519 17.3360 19.1751 21.1837 23.3773 25.7729 28.3892 31.2465
 34.3669 37.7748 41.4965 45.5611 50.0000

    POTLOK:  cpu time     11.3592: real time     11.3641
    SETDIJ:  cpu time      0.0745: real time      0.0751
    TRIAL :  cpu time      0.3414: real time      0.3442
    CORREC:  cpu time      0.0016: real time      0.0016
    --------------------------------------------
      LOOP:  cpu time     11.7822: real time     11.7907

 eigenvalue-minimisations  :    72
 total energy-change (2. order) : 0.3685212E+03  (-0.9381155E+03)
 number of electron      36.0000000 magnetization 
 augmentation part       36.0000000 magnetization 

 Free energy of the ion-electron system (eV)
  ---------------------------------------------------
  alpha Z        PSCENC =         0.35173684
  Ewald energy   TEWEN  =      2549.12670408
  -Hartree energ DENC   =     -3773.64700077
  -exchange      EXHF   =         0.00000000
  -V(xc)+E(xc)   XCENC  =       104.25988073
  PAW double counting   =      1253.53379175    -1236.90258838
  entropy T*S    EENTRO =        -0.00000000
  eigenvalues    EBANDS =      -201.28786251
  atomic energy  EATOM  =      1673.08654707
  ---------------------------------------------------
  free energy    TOTEN  =       368.52120881 eV

  energy without entropy =      368.52120881  energy(sigma->0) =      368.52120881


--------------------------------------------------------------------------------------------------------




--------------------------------------- Iteration      1(   2)  ---------------------------------------


    TRIAL :  cpu time      0.4071: real time      0.4072
    CORREC:  cpu time      0.0005: real time      0.0005
    --------------------------------------------
      LOOP:  cpu time      0.4213: real time      0.4353

 eigenvalue-minimisations  :   108
 total energy-change (2. order) :-0.1965669E+03  (-0.1934201E+03)
 number of electron      36.0000000 magnetization 
 augmentation part       36.0000000 magnetization 

 Free energy of the ion-electron system (eV)
  ---------------------------------------------------
  alpha Z        PSCENC =         0.35173684
  Ewald energy   TEWEN  =      2549.12670408
  -Hartree energ DENC   =     -3773.64700077
  -exchange      EXHF   =         0.00000000
  -V(xc)+E(xc)   XCENC  =       104.25988073
  PAW double counting   =      1253.53379175    -1236.90258838
  entropy T*S    EENTRO =        -0.00001901
  eigenvalues    EBANDS =      -397.85473323
  atomic energy  EATOM  =      1673.08654707
  ---------------------------------------------------
  free energy    TOTEN  =       171.95431908 eV

  energy without entropy =      171.95433809  energy(sigma->0) =      171.95432858


--------------------------------------------------------------------------------------------------------




--------------------------------------- Iteration      1(   3)  ---------------------------------------


    TRIAL :  cpu time      0.3950: real time      0.3950
    CORREC:  cpu time      0.0001: real time      0.0001
    --------------------------------------------
      LOOP:  cpu time      0.4069: real time      0.4291

 eigenvalue-minimisations  :   104
 total energy-change (2. order) :-0.1739845E+03  (-0.1715266E+03)
 number of electron      36.0000000 magnetization 
 augmentation part       36.0000000 magnetization 

 Free energy of the ion-electron system (eV)
  ---------------------------------------------------
  alpha Z        PSCENC =         0.35173684
  Ewald energy   TEWEN  =      2549.12670408
  -Hartree energ DENC   =     -3773.64700077
  -exchange      EXHF   =         0.00000000
  -V(xc)+E(xc)   XCENC  =       104.25988073
  PAW double counting   =      1253.53379175    -1236.90258838
  entropy T*S    EENTRO =        -0.00000000
  eigenvalues    EBANDS =      -571.83927672
  atomic energy  EATOM  =      1673.08654707
  ---------------------------------------------------
  free energy    TOTEN  =        -2.03020541 eV

  energy without entropy =       -2.03020541  energy(sigma->0) =       -2.03020541


--------------------------------------------------------------------------------------------------------




--------------------------------------- Iteration      1(   4)  ---------------------------------------


    TRIAL :  cpu time      0.3003: real time      0.3003
    CORREC:  cpu time      0.0001: real time      0.0001
    --------------------------------------------
      LOOP:  cpu time      0.3299: real time      0.3303

 eigenvalue-minimisations  :    72
 total energy-change (2. order) :-0.6595441E+02  (-0.6576343E+02)
 number of electron      36.0000000 magnetization 
 augmentation part       36.0000000 magnetization 

 Free energy of the ion-electron system (eV)
  ---------------------------------------------------
  alpha Z        PSCENC =         0.35173684
  Ewald energy   TEWEN  =      2549.12670408
  -Hartree energ DENC   =     -3773.64700077
  -exchange      EXHF   =         0.00000000
  -V(xc)+E(xc)   XCENC  =       104.25988073
  PAW double counting   =      1253.53379175    -1236.90258838
  entropy T*S    EENTRO =        -0.00000000
  eigenvalues    EBANDS =      -637.79368277
  atomic energy  EATOM  =      1673.08654707
  ---------------------------------------------------
  free energy    TOTEN  =       -67.98461146 eV

  energy without entropy =      -67.98461146  energy(sigma->0) =      -67.98461146


--------------------------------------------------------------------------------------------------------




--------------------------------------- Iteration      1(   5)  ---------------------------------------


    TRIAL :  cpu time      0.2769: real time      0.2769
    CORREC:  cpu time      0.0001: real time      0.0001
    CHARGE:  cpu time      0.0721: real time      0.0740
    --------------------------------------------
      LOOP:  cpu time      0.3622: real time      0.3846

 eigenvalue-minimisations  :    64
 total energy-change (2. order) :-0.5662181E+01  (-0.5650061E+01)
 number of electron      36.0000000 magnetization 
 augmentation part        0.1745994 magnetization 

 Free energy of the ion-electron system (eV)
  ---------------------------------------------------
  alpha Z        PSCENC =         0.35173684
  Ewald energy   TEWEN  =      2549.12670408
  -Hartree energ DENC   =     -3773.64700077
  -exchange      EXHF   =         0.00000000
  -V(xc)+E(xc)   XCENC  =       104.25988073
  PAW double counting   =      1253.53379175    -1236.90258838
  entropy T*S    EENTRO =        -0.00000000
  eigenvalues    EBANDS =      -643.45586349
  atomic energy  EATOM  =      1673.08654707
  ---------------------------------------------------
  free energy    TOTEN  =       -73.64679218 eV

  energy without entropy =      -73.64679218  energy(sigma->0) =      -73.64679218


--------------------------------------------------------------------------------------------------------




--------------------------------------- Iteration      1(   6)  ---------------------------------------


    POTLOK:  cpu time     10.8272: real time     10.8306
    SETDIJ:  cpu time      0.0693: real time      0.0693
    TRIAL :  cpu time      0.1600: real time      0.1627
    CORREC:  cpu time     10.7288: real time     10.7317
    CHARGE:  cpu time      0.0456: real time      0.0456
    --------------------------------------------
      LOOP:  cpu time     21.8465: real time     21.8702

 eigenvalue-minimisations  :     0
 total energy-change (2. order) : 0.1611623E+02  (-0.6915077E+01)
 number of electron      36.0000000 magnetization 
 augmentation part        0.1278734 magnetization 

 Free energy of the ion-electron system (eV)
  ---------------------------------------------------
  alpha Z        PSCENC =         0.35173684
  Ewald energy   TEWEN  =      2549.12670408
  -Hartree energ DENC   =     -4070.38787344
  -exchange      EXHF   =         0.00000000
  -V(xc)+E(xc)   XCENC  =       118.00993234
  PAW double counting   =     12312.68978046   -12298.15487242
  entropy T*S    EENTRO =        -0.00000000
  eigenvalues    EBANDS =      -342.25251799
  atomic energy  EATOM  =      1673.08654707
  ---------------------------------------------------
  free energy    TOTEN  =       -57.53056307 eV

  energy without entropy =      -57.53056307  energy(sigma->0) =      -57.53056307


--------------------------------------------------------------------------------------------------------




--------------------------------------- Iteration      1(   7)  ---------------------------------------


    POTLOK:  cpu time     10.8247: real time     10.8280
    SETDIJ:  cpu time      0.0696: real time      0.0696
    TRIAL :  cpu time      0.1460: real time      0.1460
    CORREC:  cpu time     10.8448: real time     10.8478
    CHARGE:  cpu time      0.0449: real time      0.0449
    --------------------------------------------
      LOOP:  cpu time     21.9466: real time     21.9668

 eigenvalue-minimisations  :     0
 total energy-change (2. order) :-0.6994348E+01  (-0.8396526E+00)
 number of electron      36.0000000 magnetization 
 augmentation part        0.0999710 magnetization 

 Free energy of the ion-electron system (eV)
  ---------------------------------------------------
  alpha Z        PSCENC =         0.35173684
  Ewald energy   TEWEN  =      2549.12670408
  -Hartree energ DENC   =     -3928.93212464
  -exchange      EXHF   =         0.00000000
  -V(xc)+E(xc)   XCENC  =       111.79391969
  PAW double counting   =     15303.71429191   -15288.19125040
  entropy T*S    EENTRO =        -0.00000000
  eigenvalues    EBANDS =      -485.47473611
  atomic energy  EATOM  =      1673.08654707
  ---------------------------------------------------
  free energy    TOTEN  =       -64.52491156 eV

  energy without entropy =      -64.52491156  energy(sigma->0) =      -64.52491156


--------------------------------------------------------------------------------------------------------




--------------------------------------- Iteration      1(   8)  ---------------------------------------


    POTLOK:  cpu time     10.6408: real time     10.6434
    SETDIJ:  cpu time      0.0690: real time      0.0690
    TRIAL :  cpu time      0.1433: real time      0.1434
    CORREC:  cpu time     10.9821: real time     10.9849
    CHARGE:  cpu time      0.0447: real time      0.0448
    --------------------------------------------
      LOOP:  cpu time     21.8938: real time     21.9171

 eigenvalue-minimisations  :     0
 total energy-change (2. order) :-0.8439263E+00  (-0.3410746E+00)
 number of electron      36.0000000 magnetization 
 augmentation part        0.0937313 magnetization 

 Free energy of the ion-electron system (eV)
  ---------------------------------------------------
  alpha Z        PSCENC =         0.35173684
  Ewald energy   TEWEN  =      2549.12670408
  -Hartree energ DENC   =     -3936.14501868
  -exchange      EXHF   =         0.00000000
  -V(xc)+E(xc)   XCENC  =       111.94583456
  PAW double counting   =     15646.66828315   -15631.01615051
  entropy T*S    EENTRO =        -0.00000000
  eigenvalues    EBANDS =      -479.38677437
  atomic energy  EATOM  =      1673.08654707
  ---------------------------------------------------
  free energy    TOTEN  =       -65.36883786 eV

  energy without entropy =      -65.36883786  energy(sigma->0) =      -65.36883786


--------------------------------------------------------------------------------------------------------




--------------------------------------- Iteration      1(   9)  ---------------------------------------


    POTLOK:  cpu time     10.6185: real time     10.6213
    SETDIJ:  cpu time      0.0691: real time      0.0691
    TRIAL :  cpu time      0.1447: real time      0.1447
    CORREC:  cpu time     10.8211: real time     10.8241
    CHARGE:  cpu time      0.0448: real time      0.0448
    --------------------------------------------
      LOOP:  cpu time     21.7118: real time     21.7344

 eigenvalue-minimisations  :     0
 total energy-change (2. order) :-0.3399041E+00  (-0.1618579E+00)
 number of electron      36.0000000 magnetization 
 augmentation part        0.0935720 magnetization 

 Free energy of the ion-electron system (eV)
  ---------------------------------------------------
  alpha Z        PSCENC =         0.35173684
  Ewald energy   TEWEN  =      2549.12670408
  -Hartree energ DENC   =     -3935.98427759
  -exchange      EXHF   =         0.00000000
  -V(xc)+E(xc)   XCENC  =       111.86429469
  PAW double counting   =     16117.06130545   -16101.33270868
  entropy T*S    EENTRO =        -0.00000000
  eigenvalues    EBANDS =      -479.88234383
  atomic energy  EATOM  =      1673.08654707
  ---------------------------------------------------
  free energy    TOTEN  =       -65.70874198 eV

  energy without entropy =      -65.70874198  energy(sigma->0) =      -65.70874198


--------------------------------------------------------------------------------------------------------




--------------------------------------- Iteration      1(  10)  ---------------------------------------


    POTLOK:  cpu time     11.1282: real time     11.1310
    SETDIJ:  cpu time      0.0695: real time      0.0695
    TRIAL :  cpu time      0.1432: real time      0.1432
    CORREC:  cpu time     10.7394: real time     10.7422
    CHARGE:  cpu time      0.0447: real time      0.0447
    --------------------------------------------
      LOOP:  cpu time     22.1426: real time     22.1609

 eigenvalue-minimisations  :     0
 total energy-change (2. order) :-0.1590768E+00  (-0.5631846E-01)
 number of electron      36.0000000 magnetization 
 augmentation part        0.0964900 magnetization 

 Free energy of the ion-electron system (eV)
  ---------------------------------------------------
  alpha Z        PSCENC =         0.35173684
  Ewald energy   TEWEN  =      2549.12670408
  -Hartree energ DENC   =     -3931.18115164
  -exchange      EXHF   =         0.00000000
  -V(xc)+E(xc)   XCENC  =       111.71813593
  PAW double counting   =     15849.78029614   -15834.03717479
  entropy T*S    EENTRO =        -0.00000000
  eigenvalues    EBANDS =      -484.71291239
  atomic energy  EATOM  =      1673.08654707
  ---------------------------------------------------
  free energy    TOTEN  =       -65.86781877 eV

  energy without entropy =      -65.86781877  energy(sigma->0) =      -65.86781877


--------------------------------------------------------------------------------------------------------




--------------------------------------- Iteration      1(  11)  ---------------------------------------


    POTLOK:  cpu time     10.8474: real time     10.8504
    SETDIJ:  cpu time      0.0693: real time      0.0693
    TRIAL :  cpu time      0.1429: real time      0.1429
    CORREC:  cpu time     10.9371: real time     10.9400
    CHARGE:  cpu time      0.0451: real time      0.0451
    --------------------------------------------
      LOOP:  cpu time     22.0551: real time     22.0781

 eigenvalue-minimisations  :     0
 total energy-change (2. order) :-0.5603649E-01  (-0.1875570E-01)
 number of electron      36.0000000 magnetization 
 augmentation part        0.0981854 magnetization 

 Free energy of the ion-electron system (eV)
  ---------------------------------------------------
  alpha Z        PSCENC =         0.35173684
  Ewald energy   TEWEN  =      2549.12670408
  -Hartree energ DENC   =     -3930.06601312
  -exchange      EXHF   =         0.00000000
  -V(xc)+E(xc)   XCENC  =       111.70052259
  PAW double counting   =     15518.69836401   -15502.98397130
  entropy T*S    EENTRO =        -0.00000000
  eigenvalues    EBANDS =      -485.83774543
  atomic energy  EATOM  =      1673.08654707
  ---------------------------------------------------
  free energy    TOTEN  =       -65.92385527 eV

  energy without entropy =      -65.92385527  energy(sigma->0) =      -65.92385527


--------------------------------------------------------------------------------------------------------




--------------------------------------- Iteration      1(  12)  ---------------------------------------


    POTLOK:  cpu time     10.6767: real time     10.6795
    SETDIJ:  cpu time      0.0692: real time      0.0692
    TRIAL :  cpu time      0.1433: real time      0.1433
    CORREC:  cpu time     10.9784: real time     10.9811
    CHARGE:  cpu time      0.0450: real time      0.0450
    --------------------------------------------
      LOOP:  cpu time     21.9539: real time     21.9598

 eigenvalue-minimisations  :     0
 total energy-change (2. order) :-0.1872859E-01  (-0.6414117E-02)
 number of electron      36.0000000 magnetization 
 augmentation part        0.0985755 magnetization 

 Free energy of the ion-electron system (eV)
  ---------------------------------------------------
  alpha Z        PSCENC =         0.35173684
  Ewald energy   TEWEN  =      2549.12670408
  -Hartree energ DENC   =     -3929.56343630
  -exchange      EXHF   =         0.00000000
  -V(xc)+E(xc)   XCENC  =       111.66796580
  PAW double counting   =     15419.06646935   -15403.36530712
  entropy T*S    EENTRO =        -0.00000000
  eigenvalues    EBANDS =      -486.31326357
  atomic energy  EATOM  =      1673.08654707
  ---------------------------------------------------
  free energy    TOTEN  =       -65.94258386 eV

  energy without entropy =      -65.94258386  energy(sigma->0) =      -65.94258386


--------------------------------------------------------------------------------------------------------




--------------------------------------- Iteration      1(  13)  ---------------------------------------


    POTLOK:  cpu time     10.7372: real time     10.7400
    SETDIJ:  cpu time      0.0691: real time      0.0691
    TRIAL :  cpu time      0.1450: real time      0.1450
    CORREC:  cpu time     10.7787: real time     10.7814
    CHARGE:  cpu time      0.0447: real time      0.0447
    --------------------------------------------
      LOOP:  cpu time     21.7924: real time     21.8157

 eigenvalue-minimisations  :     0
 total energy-change (2. order) :-0.6419704E-02  (-0.2721191E-02)
 number of electron      36.0000000 magnetization 
 augmentation part        0.0987980 magnetization 

 Free energy of the ion-electron system (eV)
  ---------------------------------------------------
  alpha Z        PSCENC =         0.35173684
  Ewald energy   TEWEN  =      2549.12670408
  -Hartree energ DENC   =     -3929.34191683
  -exchange      EXHF   =         0.00000000
  -V(xc)+E(xc)   XCENC  =       111.65042437
  PAW double counting   =     15421.60664775   -15405.90893474
  entropy T*S    EENTRO =        -0.00000000
  eigenvalues    EBANDS =      -486.52021210
  atomic energy  EATOM  =      1673.08654707
  ---------------------------------------------------
  free energy    TOTEN  =       -65.94900356 eV

  energy without entropy =      -65.94900356  energy(sigma->0) =      -65.94900356


--------------------------------------------------------------------------------------------------------




--------------------------------------- Iteration      1(  14)  ---------------------------------------


    POTLOK:  cpu time     10.9159: real time     10.9188
    SETDIJ:  cpu time      0.0689: real time      0.0689
    TRIAL :  cpu time      0.1438: real time      0.1439
    CORREC:  cpu time     10.7373: real time     10.7398
    CHARGE:  cpu time      0.0455: real time      0.0455
    --------------------------------------------
      LOOP:  cpu time     21.9257: real time     21.9472

 eigenvalue-minimisations  :     0
 total energy-change (2. order) :-0.2724464E-02  (-0.1342971E-02)
 number of electron      36.0000000 magnetization 
 augmentation part        0.0988187 magnetization 

 Free energy of the ion-electron system (eV)
  ---------------------------------------------------
  alpha Z        PSCENC =         0.35173684
  Ewald energy   TEWEN  =      2549.12670408
  -Hartree energ DENC   =     -3929.50528619
  -exchange      EXHF   =         0.00000000
  -V(xc)+E(xc)   XCENC  =       111.65287137
  PAW double counting   =     15438.18757942   -15422.49223529
  entropy T*S    EENTRO =        -0.00000000
  eigenvalues    EBANDS =      -486.35964532
  atomic energy  EATOM  =      1673.08654707
  ---------------------------------------------------
  free energy    TOTEN  =       -65.95172803 eV

  energy without entropy =      -65.95172803  energy(sigma->0) =      -65.95172803


--------------------------------------------------------------------------------------------------------




--------------------------------------- Iteration      1(  15)  ---------------------------------------


    POTLOK:  cpu time     10.8669: real time     10.8699
    SETDIJ:  cpu time      0.0693: real time      0.0693
    TRIAL :  cpu time      0.1433: real time      0.1433
    CORREC:  cpu time     10.8939: real time     10.8967
    CHARGE:  cpu time      0.0445: real time      0.0445
    --------------------------------------------
      LOOP:  cpu time     22.0483: real time     22.0542

 eigenvalue-minimisations  :     0
 total energy-change (2. order) :-0.1344086E-02  (-0.6247259E-03)
 number of electron      36.0000000 magnetization 
 augmentation part        0.0989079 magnetization 

 Free energy of the ion-electron system (eV)
  ---------------------------------------------------
  alpha Z        PSCENC =         0.35173684
  Ewald energy   TEWEN  =      2549.12670408
  -Hartree energ DENC   =     -3929.75953973
  -exchange      EXHF   =         0.00000000
  -V(xc)+E(xc)   XCENC  =       111.65799877
  PAW double counting   =     15438.81883266   -15423.12342549
  entropy T*S    EENTRO =        -0.00000000
  eigenvalues    EBANDS =      -486.11192632
  atomic energy  EATOM  =      1673.08654707
  ---------------------------------------------------
  free energy    TOTEN  =       -65.95307211 eV

  energy without entropy =      -65.95307211  energy(sigma->0) =      -65.95307211


--------------------------------------------------------------------------------------------------------




--------------------------------------- Iteration      1(  16)  ---------------------------------------


    POTLOK:  cpu time     10.5687: real time     10.5716
    SETDIJ:  cpu time      0.0696: real time      0.0696
    TRIAL :  cpu time      0.1434: real time      0.1436
    CORREC:  cpu time     10.9710: real time     10.9736
    CHARGE:  cpu time      0.0445: real time      0.0449
    --------------------------------------------
      LOOP:  cpu time     21.8094: real time     21.8361

 eigenvalue-minimisations  :     0
 total energy-change (2. order) :-0.6247601E-03  (-0.2576307E-03)
 number of electron      36.0000000 magnetization 
 augmentation part        0.0989740 magnetization 

 Free energy of the ion-electron system (eV)
  ---------------------------------------------------
  alpha Z        PSCENC =         0.35173684
  Ewald energy   TEWEN  =      2549.12670408
  -Hartree energ DENC   =     -3929.97044070
  -exchange      EXHF   =         0.00000000
  -V(xc)+E(xc)   XCENC  =       111.66426323
  PAW double counting   =     15419.44300978   -15403.74770525
  entropy T*S    EENTRO =        -0.00000000
  eigenvalues    EBANDS =      -485.90781191
  atomic energy  EATOM  =      1673.08654707
  ---------------------------------------------------
  free energy    TOTEN  =       -65.95369687 eV

  energy without entropy =      -65.95369687  energy(sigma->0) =      -65.95369687


--------------------------------------------------------------------------------------------------------




--------------------------------------- Iteration      1(  17)  ---------------------------------------


    POTLOK:  cpu time     10.7605: real time     10.7631
    SETDIJ:  cpu time      0.0692: real time      0.0692
    TRIAL :  cpu time      0.1435: real time      0.1438
    CORREC:  cpu time     10.8123: real time     10.8148
    CHARGE:  cpu time      0.0453: real time      0.0453
    --------------------------------------------
      LOOP:  cpu time     21.8670: real time     21.8726

 eigenvalue-minimisations  :     0
 total energy-change (2. order) :-0.2578584E-03  (-0.1001101E-03)
 number of electron      36.0000000 magnetization 
 augmentation part        0.0990209 magnetization 

 Free energy of the ion-electron system (eV)
  ---------------------------------------------------
  alpha Z        PSCENC =         0.35173684
  Ewald energy   TEWEN  =      2549.12670408
  -Hartree energ DENC   =     -3929.96978979
  -exchange      EXHF   =         0.00000000
  -V(xc)+E(xc)   XCENC  =       111.66360865
  PAW double counting   =     15402.80700709   -15387.11120100
  entropy T*S    EENTRO =        -0.00000000
  eigenvalues    EBANDS =      -485.90856767
  atomic energy  EATOM  =      1673.08654707
  ---------------------------------------------------
  free energy    TOTEN  =       -65.95395473 eV

  energy without entropy =      -65.95395473  energy(sigma->0) =      -65.95395473


--------------------------------------------------------------------------------------------------------




--------------------------------------- Iteration      1(  18)  ---------------------------------------


    POTLOK:  cpu time     10.8019: real time     10.8050
    SETDIJ:  cpu time      0.0688: real time      0.0689
    TRIAL :  cpu time      0.1437: real time      0.1437
    CORREC:  cpu time     10.7819: real time     10.7849
    CHARGE:  cpu time      0.0448: real time      0.0448
    --------------------------------------------
      LOOP:  cpu time     21.8868: real time     21.8931

 eigenvalue-minimisations  :     0
 total energy-change (2. order) :-0.1000948E-03  (-0.3751910E-04)
 number of electron      36.0000000 magnetization 
 augmentation part        0.0989511 magnetization 

 Free energy of the ion-electron system (eV)
  ---------------------------------------------------
  alpha Z        PSCENC =         0.35173684
  Ewald energy   TEWEN  =      2549.12670408
  -Hartree energ DENC   =     -3930.05074267
  -exchange      EXHF   =         0.00000000
  -V(xc)+E(xc)   XCENC  =       111.66783028
  PAW double counting   =     15399.61158211   -15383.91605416
  entropy T*S    EENTRO =        -0.00000000
  eigenvalues    EBANDS =      -485.83165837
  atomic energy  EATOM  =      1673.08654707
  ---------------------------------------------------
  free energy    TOTEN  =       -65.95405482 eV

  energy without entropy =      -65.95405482  energy(sigma->0) =      -65.95405482


--------------------------------------------------------------------------------------------------------




--------------------------------------- Iteration      1(  19)  ---------------------------------------


    POTLOK:  cpu time     10.7297: real time     10.7327
    SETDIJ:  cpu time      0.0693: real time      0.0693
    TRIAL :  cpu time      0.1429: real time      0.1430
    CORREC:  cpu time     10.9226: real time     10.9254
    CHARGE:  cpu time      0.0451: real time      0.0451
    --------------------------------------------
      LOOP:  cpu time     21.9251: real time     21.9461

 eigenvalue-minimisations  :     0
 total energy-change (2. order) :-0.3740497E-04  (-0.1465261E-04)
 number of electron      36.0000000 magnetization 
 augmentation part        0.0989134 magnetization 

 Free energy of the ion-electron system (eV)
  ---------------------------------------------------
  alpha Z        PSCENC =         0.35173684
  Ewald energy   TEWEN  =      2549.12670408
  -Hartree energ DENC   =     -3930.00364864
  -exchange      EXHF   =         0.00000000
  -V(xc)+E(xc)   XCENC  =       111.66672556
  PAW double counting   =     15405.74099438   -15390.04497052
  entropy T*S    EENTRO =        -0.00000000
  eigenvalues    EBANDS =      -485.87818099
  atomic energy  EATOM  =      1673.08654707
  ---------------------------------------------------
  free energy    TOTEN  =       -65.95409223 eV

  energy without entropy =      -65.95409223  energy(sigma->0) =      -65.95409223


--------------------------------------------------------------------------------------------------------




--------------------------------------- Iteration      1(  20)  ---------------------------------------


    POTLOK:  cpu time     10.5471: real time     10.5497
    SETDIJ:  cpu time      0.0694: real time      0.0694
    TRIAL :  cpu time      0.1435: real time      0.1436
    CORREC:  cpu time     10.9261: real time     10.9287
    CHARGE:  cpu time      0.0451: real time      0.0452
    --------------------------------------------
      LOOP:  cpu time     21.7444: real time     21.7674

 eigenvalue-minimisations  :     0
 total energy-change (2. order) :-0.1447594E-04  (-0.5941925E-05)
 number of electron      36.0000000 magnetization 
 augmentation part        0.0988859 magnetization 

 Free energy of the ion-electron system (eV)
  ---------------------------------------------------
  alpha Z        PSCENC =         0.35173684
  Ewald energy   TEWEN  =      2549.12670408
  -Hartree energ DENC   =     -3930.00488757
  -exchange      EXHF   =         0.00000000
  -V(xc)+E(xc)   XCENC  =       111.66704999
  PAW double counting   =     15411.47217988   -15395.77613669
  entropy T*S    EENTRO =        -0.00000000
  eigenvalues    EBANDS =      -485.87730029
  atomic energy  EATOM  =      1673.08654707
  ---------------------------------------------------
  free energy    TOTEN  =       -65.95410671 eV

  energy without entropy =      -65.95410671  energy(sigma->0) =      -65.95410671


--------------------------------------------------------------------------------------------------------




--------------------------------------- Iteration      1(  21)  ---------------------------------------


    POTLOK:  cpu time     10.7380: real time     10.7407
    SETDIJ:  cpu time      0.0694: real time      0.0694
    TRIAL :  cpu time      0.1440: real time      0.1440
    CORREC:  cpu time     10.7668: real time     10.7696
    CHARGE:  cpu time      0.0447: real time      0.0447
    --------------------------------------------
      LOOP:  cpu time     21.7750: real time     21.7986

 eigenvalue-minimisations  :     0
 total energy-change (2. order) :-0.5832802E-05  (-0.2102538E-05)
 number of electron      36.0000000 magnetization 
 augmentation part        0.0988758 magnetization 

 Free energy of the ion-electron system (eV)
  ---------------------------------------------------
  alpha Z        PSCENC =         0.35173684
  Ewald energy   TEWEN  =      2549.12670408
  -Hartree energ DENC   =     -3929.98773298
  -exchange      EXHF   =         0.00000000
  -V(xc)+E(xc)   XCENC  =       111.66664021
  PAW double counting   =     15414.12580258   -15398.42973028
  entropy T*S    EENTRO =        -0.00000000
  eigenvalues    EBANDS =      -485.89408006
  atomic energy  EATOM  =      1673.08654707
  ---------------------------------------------------
  free energy    TOTEN  =       -65.95411254 eV

  energy without entropy =      -65.95411254  energy(sigma->0) =      -65.95411254


--------------------------------------------------------------------------------------------------------




--------------------------------------- Iteration      1(  22)  ---------------------------------------


    POTLOK:  cpu time     11.1581: real time     11.1610
    SETDIJ:  cpu time      0.0693: real time      0.0694
    TRIAL :  cpu time      0.1434: real time      0.1434
    CORREC:  cpu time     10.7163: real time     10.7192
    CHARGE:  cpu time      0.0449: real time      0.0450
    --------------------------------------------
      LOOP:  cpu time     22.1457: real time     22.1729

 eigenvalue-minimisations  :     0
 total energy-change (2. order) :-0.2075434E-05  (-0.7040818E-06)
 number of electron      36.0000000 magnetization 
 augmentation part        0.0988806 magnetization 

 Free energy of the ion-electron system (eV)
  ---------------------------------------------------
  alpha Z        PSCENC =         0.35173684
  Ewald energy   TEWEN  =      2549.12670408
  -Hartree energ DENC   =     -3929.97840741
  -exchange      EXHF   =         0.00000000
  -V(xc)+E(xc)   XCENC  =       111.66621446
  PAW double counting   =     15414.00456657   -15398.30849806
  entropy T*S    EENTRO =        -0.00000000
  eigenvalues    EBANDS =      -485.90297816
  atomic energy  EATOM  =      1673.08654707
  ---------------------------------------------------
  free energy    TOTEN  =       -65.95411461 eV

  energy without entropy =      -65.95411461  energy(sigma->0) =      -65.95411461


--------------------------------------------------------------------------------------------------------




--------------------------------------- Iteration      1(  23)  ---------------------------------------


    POTLOK:  cpu time     10.7703: real time     10.7735
    SETDIJ:  cpu time      0.0691: real time      0.0691
    TRIAL :  cpu time      0.1439: real time      0.1439
    CORREC:  cpu time     10.8553: real time     10.8583
    CHARGE:  cpu time      0.0444: real time      0.0444
    --------------------------------------------
      LOOP:  cpu time     21.9137: real time     21.9200

 eigenvalue-minimisations  :     0
 total energy-change (2. order) :-0.7019808E-06  (-0.2390797E-06)
 number of electron      36.0000000 magnetization 
 augmentation part        0.0988781 magnetization 

 Free energy of the ion-electron system (eV)
  ---------------------------------------------------
  alpha Z        PSCENC =         0.35173684
  Ewald energy   TEWEN  =      2549.12670408
  -Hartree energ DENC   =     -3929.98366237
  -exchange      EXHF   =         0.00000000
  -V(xc)+E(xc)   XCENC  =       111.66636308
  PAW double counting   =     15413.13796401   -15397.44197728
  entropy T*S    EENTRO =        -0.00000000
  eigenvalues    EBANDS =      -485.89779075
  atomic energy  EATOM  =      1673.08654707
  ---------------------------------------------------
  free energy    TOTEN  =       -65.95411532 eV

  energy without entropy =      -65.95411532  energy(sigma->0) =      -65.95411532


--------------------------------------------------------------------------------------------------------




--------------------------------------- Iteration      1(  24)  ---------------------------------------


    POTLOK:  cpu time     10.5534: real time     10.5559
    SETDIJ:  cpu time      0.0692: real time      0.0694
    TRIAL :  cpu time      0.1428: real time      0.1428
    CORREC:  cpu time     10.9246: real time     10.9275
    CHARGE:  cpu time      0.0447: real time      0.0447
    --------------------------------------------
      LOOP:  cpu time     21.7494: real time     21.7712

 eigenvalue-minimisations  :     0
 total energy-change (2. order) :-0.2421675E-06  (-0.9612774E-07)
 number of electron      36.0000000 magnetization 
 augmentation part        0.0988818 magnetization 

 Free energy of the ion-electron system (eV)
  ---------------------------------------------------
  alpha Z        PSCENC =         0.35173684
  Ewald energy   TEWEN  =      2549.12670408
  -Hartree energ DENC   =     -3929.97897084
  -exchange      EXHF   =         0.00000000
  -V(xc)+E(xc)   XCENC  =       111.66610370
  PAW double counting   =     15412.68730284   -15396.99127733
  entropy T*S    EENTRO =        -0.00000000
  eigenvalues    EBANDS =      -485.90226191
  atomic energy  EATOM  =      1673.08654707
  ---------------------------------------------------
  free energy    TOTEN  =       -65.95411556 eV

  energy without entropy =      -65.95411556  energy(sigma->0) =      -65.95411556


--------------------------------------------------------------------------------------------------------




--------------------------------------- Iteration      1(  25)  ---------------------------------------


    POTLOK:  cpu time     11.0467: real time     11.0498
    SETDIJ:  cpu time      0.0692: real time      0.0692
    TRIAL :  cpu time      0.1438: real time      0.1438
    CORREC:  cpu time     10.7769: real time     10.7797
    EDDIAG:  cpu time      0.0733: real time      0.0748
    CHARGE:  cpu time      0.0446: real time      0.0447
    --------------------------------------------
      LOOP:  cpu time     22.1695: real time     22.1947

 eigenvalue-minimisations  :     0
 total energy-change (2. order) :-0.9793803E-07  (-0.3043400E-07)
 number of electron      36.0000000 magnetization 
 augmentation part        0.0988833 magnetization 

 Free energy of the ion-electron system (eV)
  ---------------------------------------------------
  alpha Z        PSCENC =         0.35173684
  Ewald energy   TEWEN  =      2549.12670408
  -Hartree energ DENC   =     -3929.98281586
  -exchange      EXHF   =         0.00000000
  -V(xc)+E(xc)   XCENC  =       111.66623263
  PAW double counting   =     15412.52294465   -15396.82694103
  entropy T*S    EENTRO =        -0.00000000
  eigenvalues    EBANDS =      -485.89852403
  atomic energy  EATOM  =      1673.08654707
  ---------------------------------------------------
  free energy    TOTEN  =       -65.95411566 eV

  energy without entropy =      -65.95411566  energy(sigma->0) =      -65.95411566


--------------------------------------------------------------------------------------------------------


  average scaling for gradient   1.0125


 average (electrostatic) potential at core
  the test charge radii are     0.5770  0.4325  0.5902  0.5955
  (the norm of the test charge is              1.0000)
       1 -90.1808       2 -87.9947       3 -86.6084       4 -48.2920       5 -48.3143
       6 -45.9125       7 -45.9113       8 -45.9746       9 -45.8159      10 -45.8219
      11-104.7522      12-118.9359      13-120.7228



 E-fermi :  -6.3565     XC(G=0):  -0.2058     alpha+bet : -0.0715

 Fermi energy:        -6.3565327107

 k-point     1 :       0.0000    0.0000    0.0000
  band No.  band energies     occupation 
      1     -27.5542      2.00000
      2     -25.2244      2.00000
      3     -22.7978      2.00000
      4     -19.1366      2.00000
      5     -16.1549      2.00000
      6     -14.4819      2.00000
      7     -13.7775      2.00000
      8     -12.7012      2.00000
      9     -12.0715      2.00000
     10     -10.9745      2.00000
     11     -10.5494      2.00000
     12      -9.9683      2.00000
     13      -9.6842      2.00000
     14      -8.9448      2.00000
     15      -8.6171      2.00000
     16      -7.1337      2.00000
     17      -6.7307      2.00000
     18      -6.4462      2.00000
     19      -1.1046      0.00000
     20      -0.6965      0.00000
     21      -0.2179      0.00000
     22      -0.1896      0.00000
     23      -0.0487      0.00000
     24       0.0404      0.00000
     25       0.1179      0.00000
     26       0.1843      0.00000
     27       0.3582      0.00000
     28       0.4249      0.00000


--------------------------------------------------------------------------------------------------------


 soft charge-density along one line, spin component           1
         0         1         2         3         4         5         6         7         8         9
 total charge-density along one line

 pseudopotential strength for first ion, spin component:           1
 12.843  21.617  -0.009  -0.000  -0.001  -0.017  -0.001  -0.003
 21.617  36.383  -0.016  -0.001  -0.002  -0.029  -0.001  -0.004
 -0.009  -0.016  -3.256   0.001   0.002  -5.840   0.002   0.004
 -0.000  -0.001   0.001  -3.261   0.001   0.002  -5.849   0.002
 -0.001  -0.002   0.002   0.001  -3.255   0.004   0.002  -5.838
 -0.017  -0.029  -5.840   0.002   0.004 -10.452   0.003   0.007
 -0.001  -0.001   0.002  -5.849   0.002   0.003 -10.469   0.003
 -0.003  -0.004   0.004   0.002  -5.838   0.007   0.003 -10.449
 total augmentation occupancy for first ion, spin component:           1
  8.371  -3.172   1.187   0.233   0.725  -0.520  -0.103  -0.366
 -3.172   1.316  -0.503  -0.109  -0.378   0.229   0.047   0.196
  1.187  -0.503   8.419   0.779   1.306  -3.119  -0.335  -0.547
  0.233  -0.109   0.779   2.936   0.307  -0.335  -0.755  -0.122
  0.725  -0.378   1.306   0.307   7.506  -0.547  -0.122  -2.650
 -0.520   0.229  -3.119  -0.335  -0.547   1.200   0.142   0.233
 -0.103   0.047  -0.335  -0.755  -0.122   0.142   0.200   0.051
 -0.366   0.196  -0.547  -0.122  -2.650   0.233   0.051   0.964


------------------------ aborting loop because EDIFF is reached ----------------------------------------


    FORLOC:  cpu time      0.0253: real time      0.0253
    FORNL :  cpu time      0.0214: real time      0.0218
    FORCOR:  cpu time     10.7973: real time     10.8000
    OFIELD:  cpu time      0.0027: real time      0.0027

 VOLUME and BASIS-vectors are now :
 -----------------------------------------------------------------------------
  energy-cutoff  :     1000.00
  volume of cell :    10648.00
      direct lattice vectors                 reciprocal lattice vectors
    22.000000000  0.000000000  0.000000000     0.045454545  0.000000000  0.000000000
     0.000000000 22.000000000  0.000000000     0.000000000  0.045454545  0.000000000
     0.000000000  0.000000000 22.000000000     0.000000000  0.000000000  0.045454545

  length of vectors
    22.000000000 22.000000000 22.000000000     0.045454545  0.045454545  0.045454545


 FORCES acting on ions:
    Electron-Ion                     Ewald-Force                    Non-Local-Force
 -----------------------------------------------------------------------------------------------
   0.846E+02 -.247E+02 0.240E+01   -.836E+02 0.310E+02 -.217E+01   -.113E+01 -.666E+01 -.262E+00
   -.169E+03 -.797E+00 -.103E+02   0.180E+03 0.133E+01 0.110E+02   -.114E+02 -.524E+00 -.750E+00
   -.925E+02 0.148E+03 0.150E+02   0.921E+02 -.149E+03 -.152E+02   0.381E+00 0.999E+00 0.136E+00
   0.690E+02 -.733E+02 0.688E+01   -.728E+02 0.801E+02 -.744E+01   0.373E+01 -.669E+01 0.549E+00
   0.708E+02 0.636E+02 0.259E+02   -.743E+02 -.701E+02 -.283E+02   0.343E+01 0.639E+01 0.231E+01
   -.483E+02 -.197E+02 -.683E+02   0.500E+02 0.220E+02 0.735E+02   -.172E+01 -.221E+01 -.514E+01
   -.557E+02 -.366E+02 0.541E+02   0.580E+02 0.402E+02 -.582E+02   -.228E+01 -.350E+01 0.410E+01
   -.735E+02 0.241E+02 -.118E+01   0.792E+02 -.247E+02 0.145E+01   -.560E+01 0.577E+00 -.267E+00
   0.975E+01 0.609E+02 -.450E+02   -.121E+02 -.642E+02 0.491E+02   0.228E+01 0.326E+01 -.403E+01
   0.323E+01 0.461E+02 0.608E+02   -.496E+01 -.482E+02 -.658E+02   0.172E+01 0.200E+01 0.501E+01
   0.275E+03 -.227E+02 -.130E+02   -.278E+03 0.212E+02 0.235E+02   0.281E+01 0.153E+01 -.106E+02
   -.142E+03 -.376E+03 -.539E+02   0.172E+03 0.421E+03 0.610E+02   -.291E+02 -.454E+02 -.715E+01
   0.839E+02 0.222E+03 0.360E+02   -.106E+03 -.261E+03 -.425E+02   0.221E+02 0.390E+02 0.649E+01
 -----------------------------------------------------------------------------------------------
   0.148E+02 0.112E+02 0.961E+01   0.000E+00 0.568E-13 -.213E-13   -.148E+02 -.112E+02 -.961E+01


 POSITION                                       TOTAL-FORCE (eV/Angst)
 -----------------------------------------------------------------------------------
     10.20352     12.19071     11.15459        -0.019787     -0.026246     -0.011543
     12.17506     10.87041     11.08975         0.046534      0.037304      0.010674
     12.56559      9.42006     10.91172         0.022412     -0.053947     -0.006791
      8.34401     13.00833     11.04008        -0.024504      0.031552     -0.012605
      8.38118     11.28726     10.80669        -0.029175     -0.026864     -0.016507
     12.49307     11.26833     12.06130         0.021391      0.012556      0.041662
     12.59879     11.51269     10.30793         0.022453      0.022064     -0.034399
     13.65599      9.32217     10.96549         0.054732     -0.004239      0.002475
     12.12411      8.79651     11.69710        -0.018049     -0.035359      0.036292
     12.23315      9.04133      9.93870        -0.013765     -0.023645     -0.046211
      8.83649     12.13133     11.12503        -0.124155     -0.002623      0.027976
     10.85947     13.20349     11.31353         0.100547      0.186101      0.030571
     10.72612     10.93578     11.01325        -0.038634     -0.116653     -0.021592
 -----------------------------------------------------------------------------------
    total drift:                                0.000359     -0.000344      0.000254


--------------------------------------------------------------------------------------------------------



  FREE ENERGIE OF THE ION-ELECTRON SYSTEM (eV)
  ---------------------------------------------------
  free  energy   TOTEN  =       -65.95411566 eV

  energy  without entropy=      -65.95411566  energy(sigma->0) =      -65.95411566



--------------------------------------------------------------------------------------------------------


    POTLOK:  cpu time     10.7154: real time     10.7184


--------------------------------------------------------------------------------------------------------


 stress matrix after NEB project (eV)
      0.00000      0.00000      0.00000
      0.00000      0.00000      0.00000
      0.00000      0.00000      0.00000
  FORCES: max atom, RMS     0.213723    0.088888
  FORCE total and by dimension    0.320490    0.186101
  Stress total and by dimension    0.000000    0.000000
     LOOP+:  cpu time    473.1976: real time    473.6641
    4ORBIT:  cpu time      0.0000: real time      0.0000

 total amount of memory used by VASP MPI-rank0    64040. kBytes
=======================================================================

   base      :      30000. kBytes
   nonl-proj :       1384. kBytes
   fftplans  :      10395. kBytes
   grid      :      21258. kBytes
   one-center:          1. kBytes
   wavefun   :       1002. kBytes

  
  
 General timing and accounting informations for this job:
 ========================================================
  
                  Total CPU time used (sec):      525.366
                            User time (sec):      519.007
                          System time (sec):        6.360
                         Elapsed time (sec):      545.740
  
                   Maximum memory used (kb):      459592.
                   Average memory used (kb):          N/A
  
                          Minor page faults:       332128
                          Major page faults:          296
                 Voluntary context switches:        11930
