  864  864    1    1
  0.8797731E+01  0.1988255E-08  0.1860622E-08  0.2079986E-08  0.5000000E-15
   1.0000000000000000E-004
  CAR 
 unknown system                          
   2376      1   1664

  0.1262379E-14  0.1262379E-14  0.1262379E-14  0.1000000E+01
      1        -21.045644   1.000000
      2        -21.043468   1.000000
      3        -21.042853   1.000000
      4        -21.042021   1.000000
      5        -21.041695   1.000000
      6        -21.041524   1.000000
      7        -21.040842   1.000000
      8        -21.040205   1.000000
      9        -21.039891   1.000000
     10        -21.004150   1.000000
     11        -21.004020   1.000000
     12        -21.002562   1.000000
     13        -21.002279   1.000000
     14        -21.001910   1.000000
     15        -21.001883   1.000000
     16        -21.000949   1.000000
     17        -21.000848   1.000000
     18        -21.000546   1.000000
     19        -21.000526   1.000000
     20        -21.000419   1.000000
     21        -21.000393   1.000000
     22        -20.999846   1.000000
     23        -20.999787   1.000000
     24        -20.999344   1.000000
     25        -20.999191   1.000000
     26        -20.999067   1.000000
     27        -20.998880   1.000000
     28        -20.920596   1.000000
     29        -20.920363   1.000000
     30        -20.920065   1.000000
     31        -20.920052   1.000000
     32        -20.919397   1.000000
     33        -20.919295   1.000000
     34        -20.917975   1.000000
     35        -20.917836   1.000000
     36        -20.917468   1.000000
     37        -20.917442   1.000000
     38        -20.917397   1.000000
     39        -20.917384   1.000000
     40        -20.916975   1.000000
     41        -20.916960   1.000000
     42        -20.916535   1.000000
     43        -20.916419   1.000000
     44        -20.916282   1.000000
     45        -20.916201   1.000000
     46        -20.889927   1.000000
     47        -20.889538   1.000000
     48        -20.887500   1.000000
     49        -20.887009   1.000000
     50        -20.885634   1.000000
     51        -20.884519   1.000000
     52        -20.878800   1.000000
     53        -20.878059   1.000000
     54        -20.875932   1.000000
     55        -20.875598   1.000000
     56        -20.872567   1.000000
     57        -20.872124   1.000000
     58        -20.868457   1.000000
     59        -20.867627   1.000000
     60        -20.865083   1.000000
     61        -20.864844   1.000000
     62        -20.862754   1.000000
     63        -20.862469   1.000000
     64        -20.861245   1.000000
     65        -20.861154   1.000000
     66        -20.860709   1.000000
     67        -20.860574   1.000000
     68        -20.860354   1.000000
     69        -20.860259   1.000000
     70        -20.860128   1.000000
     71        -20.860110   1.000000
     72        -20.859843   1.000000
     73        -20.859785   1.000000
     74        -20.859581   1.000000
     75        -20.858620   1.000000
     76        -20.858497   1.000000
     77        -20.857974   1.000000
     78        -20.857693   1.000000
     79        -20.857643   1.000000
     80        -20.857500   1.000000
     81        -20.845547   1.000000
     82        -20.826629   1.000000
     83        -20.826588   1.000000
     84        -20.826421   1.000000
     85        -20.826298   1.000000
     86        -20.825928   1.000000
     87        -20.825820   1.000000
     88        -20.825779   1.000000
     89        -20.825752   1.000000
     90        -20.825569   1.000000
     91        -20.825482   1.000000
     92        -20.825228   1.000000
     93        -20.824789   1.000000
     94        -20.824714   1.000000
     95        -20.824583   1.000000
     96        -20.824549   1.000000
     97        -20.823500   1.000000
     98        -20.823258   1.000000
     99        -20.813630   1.000000
    100        -20.809332   1.000000
    101        -20.809052   1.000000
    102        -20.808726   1.000000
    103        -20.808084   1.000000
    104        -20.807871   1.000000
    105        -20.807605   1.000000
    106        -20.807283   1.000000
    107        -20.806053   1.000000
    108        -20.728541   1.000000
    109        -15.398351   1.000000
    110        -15.397825   1.000000
    111        -15.388793   1.000000
    112        -15.388212   1.000000
    113        -15.368772   1.000000
    114        -15.367477   1.000000
    115        -15.366105   1.000000
    116        -15.365324   1.000000
    117        -15.365194   1.000000
    118        -15.365112   1.000000
    119        -15.361127   1.000000
    120        -15.360408   1.000000
    121        -15.360212   1.000000
    122        -15.360114   1.000000
    123        -15.358121   1.000000
    124        -15.357589   1.000000
    125        -15.357041   1.000000
    126        -15.356883   1.000000
    127        -15.355300   1.000000
    128        -15.346217   1.000000
    129        -15.345889   1.000000
    130        -15.338199   1.000000
    131        -15.337380   1.000000
    132        -15.336822   1.000000
    133        -15.336672   1.000000
    134        -15.331575   1.000000
    135        -15.331170   1.000000
    136        -15.328627   1.000000
    137        -15.327579   1.000000
    138        -15.327207   1.000000
    139        -15.326925   1.000000
    140        -15.326356   1.000000
    141        -15.326008   1.000000
    142        -15.325943   1.000000
    143        -15.325813   1.000000
    144        -15.318142   1.000000
    145        -15.317263   1.000000
    146        -15.316818   1.000000
    147        -15.316751   1.000000
    148        -15.316634   1.000000
    149        -15.313193   1.000000
    150        -15.312889   1.000000
    151        -15.304193   1.000000
    152        -15.303582   1.000000
    153        -15.303382   1.000000
    154        -15.303297   1.000000
    155        -15.299952   1.000000
    156        -15.299597   1.000000
    157        -15.299460   1.000000
    158        -15.299347   1.000000
    159        -15.275155   1.000000
    160        -15.274637   1.000000
    161        -15.267110   1.000000
    162        -15.266801   1.000000
    163        -13.837471   1.000000
    164        -13.836943   1.000000
    165        -13.819685   1.000000
    166        -13.819358   1.000000
    167        -13.787994   1.000000
    168        -13.787375   1.000000
    169        -13.787160   1.000000
    170        -13.787078   1.000000
    171        -13.779505   1.000000
    172        -13.779038   1.000000
    173        -13.778914   1.000000
    174        -13.778807   1.000000
    175        -13.740768   1.000000
    176        -13.740413   1.000000
    177        -13.731483   1.000000
    178        -13.730834   1.000000
    179        -13.730764   1.000000
    180        -13.730639   1.000000
    181        -13.730434   1.000000
    182        -13.729785   1.000000
    183        -13.713775   1.000000
    184        -13.713032   1.000000
    185        -13.712967   1.000000
    186        -13.712845   1.000000
    187        -13.712234   1.000000
    188        -13.710826   1.000000
    189        -13.710503   1.000000
    190        -13.709960   1.000000
    191        -13.709859   1.000000
    192        -13.705102   1.000000
    193        -13.704846   1.000000
    194        -13.694274   1.000000
    195        -13.693698   1.000000
    196        -13.693484   1.000000
    197        -13.693160   1.000000
    198        -13.693008   1.000000
    199        -13.692891   1.000000
    200        -13.685313   1.000000
    201        -13.684882   1.000000
    202        -13.684665   1.000000
    203        -13.684567   1.000000
    204        -13.671807   1.000000
    205        -13.671466   1.000000
    206        -13.670973   1.000000
    207        -13.670811   1.000000
    208        -13.660307   1.000000
    209        -13.660049   1.000000
    210        -13.652002   1.000000
    211        -13.651387   1.000000
    212        -13.647878   1.000000
    213        -13.647585   1.000000
    214        -13.644954   1.000000
    215        -13.632255   1.000000
    216        -13.631786   1.000000
    217        -12.252908   1.000000
    218        -12.252087   1.000000
    219        -12.247861   1.000000
    220        -12.246679   1.000000
    221        -12.246607   1.000000
    222        -12.246474   1.000000
    223        -12.230829   1.000000
    224        -12.228353   1.000000
    225        -12.228279   1.000000
    226        -12.228148   1.000000
    227        -12.227581   1.000000
    228        -12.225639   1.000000
    229        -12.224859   1.000000
    230        -12.223519   1.000000
    231        -12.222853   1.000000
    232        -12.221025   1.000000
    233        -12.219962   1.000000
    234        -12.219796   1.000000
    235        -12.219698   1.000000
    236        -12.218377   1.000000
    237        -12.217919   1.000000
    238        -12.216379   1.000000
    239        -12.215671   1.000000
    240        -12.215270   1.000000
    241        -12.215033   1.000000
    242        -12.214970   1.000000
    243        -12.214894   1.000000
    244        -12.210206   1.000000
    245        -12.209100   1.000000
    246        -12.209044   1.000000
    247        -12.208965   1.000000
    248        -12.208046   1.000000
    249        -12.207363   1.000000
    250        -12.207301   1.000000
    251        -12.207239   1.000000
    252        -12.207042   1.000000
    253        -12.206993   1.000000
    254        -12.206634   1.000000
    255        -12.206494   1.000000
    256        -12.201427   1.000000
    257        -12.200926   1.000000
    258        -12.200072   1.000000
    259        -12.199630   1.000000
    260        -12.199236   1.000000
    261        -12.198979   1.000000
    262        -12.198695   1.000000
    263        -12.198534   1.000000
    264        -12.196120   1.000000
    265        -12.190253   1.000000
    266        -12.189793   1.000000
    267        -12.189506   1.000000
    268        -12.189363   1.000000
    269        -12.182384   1.000000
    270        -12.182108   1.000000
    271        -11.146224   1.000000
    272        -11.082284   1.000000
    273        -11.082112   1.000000
    274        -11.034824   1.000000
    275        -11.034607   1.000000
    276        -11.017716   1.000000
    277        -11.017496   1.000000
    278        -11.004203   1.000000
    279        -11.003940   1.000000
    280        -11.003717   1.000000
    281        -11.003554   1.000000
    282        -10.992069   1.000000
    283        -10.991855   1.000000
    284        -10.991790   1.000000
    285        -10.991678   1.000000
    286        -10.965841   1.000000
    287        -10.965505   1.000000
    288        -10.942651   1.000000
    289        -10.942335   1.000000
    290        -10.942185   1.000000
    291        -10.942087   1.000000
    292        -10.928727   1.000000
    293        -10.928538   1.000000
    294        -10.924291   1.000000
    295        -10.924006   1.000000
    296        -10.923783   1.000000
    297        -10.923640   1.000000
    298        -10.916245   1.000000
    299        -10.915920   1.000000
    300        -10.915769   1.000000
    301        -10.915660   1.000000
    302        -10.914575   1.000000
    303        -10.914517   1.000000
    304        -10.914460   1.000000
    305        -10.914297   1.000000
    306        -10.911918   1.000000
    307        -10.911677   1.000000
    308        -10.902630   1.000000
    309        -10.902385   1.000000
    310        -10.902205   1.000000
    311        -10.902139   1.000000
    312        -10.884454   1.000000
    313        -10.884190   1.000000
    314        -10.875870   1.000000
    315        -10.875584   1.000000
    316        -10.875430   1.000000
    317        -10.875319   1.000000
    318        -10.874570   1.000000
    319        -10.874393   1.000000
    320        -10.862103   1.000000
    321        -10.861925   1.000000
    322        -10.836929   1.000000
    323        -10.831771   1.000000
    324        -10.831441   1.000000
    325         -9.031413   1.000000
    326         -8.969389   1.000000
    327         -8.968989   1.000000
    328         -8.868937   1.000000
    329         -8.868428   1.000000
    330         -8.862618   1.000000
    331         -8.862237   1.000000
    332         -8.830359   1.000000
    333         -8.829527   1.000000
    334         -8.829468   1.000000
    335         -8.829370   1.000000
    336         -8.821350   1.000000
    337         -8.820695   1.000000
    338         -8.820489   1.000000
    339         -8.820332   1.000000
    340         -8.792056   1.000000
    341         -8.791660   1.000000
    342         -8.782062   1.000000
    343         -8.781545   1.000000
    344         -8.730273   1.000000
    345         -8.728777   1.000000
    346         -8.728677   1.000000
    347         -8.728649   1.000000
    348         -8.728262   1.000000
    349         -8.727995   1.000000
    350         -8.727837   1.000000
    351         -8.727700   1.000000
    352         -8.715698   1.000000
    353         -8.715081   1.000000
    354         -8.714859   1.000000
    355         -8.714700   1.000000
    356         -8.700168   1.000000
    357         -8.699517   1.000000
    358         -8.697837   1.000000
    359         -8.697257   1.000000
    360         -8.697190   1.000000
    361         -8.697064   1.000000
    362         -8.673918   1.000000
    363         -8.673176   1.000000
    364         -8.673075   1.000000
    365         -8.672983   1.000000
    366         -8.663997   1.000000
    367         -8.663574   1.000000
    368         -8.658453   1.000000
    369         -8.657964   1.000000
    370         -8.654666   1.000000
    371         -8.651637   1.000000
    372         -8.651309   1.000000
    373         -8.628572   1.000000
    374         -8.627905   1.000000
    375         -8.627736   1.000000
    376         -8.627662   1.000000
    377         -8.584425   1.000000
    378         -8.583914   1.000000
    379         -7.609392   1.000000
    380         -7.609194   1.000000
    381         -7.591877   1.000000
    382         -7.578687   1.000000
    383         -7.578641   1.000000
    384         -7.556836   1.000000
    385         -7.556593   1.000000
    386         -7.556130   1.000000
    387         -7.556058   1.000000
    388         -7.551599   1.000000
    389         -7.551519   1.000000
    390         -7.551435   1.000000
    391         -7.551385   1.000000
    392         -7.531610   1.000000
    393         -7.531550   1.000000
    394         -7.523815   1.000000
    395         -7.523216   1.000000
    396         -7.509508   1.000000
    397         -7.509278   1.000000
    398         -7.509235   1.000000
    399         -7.509162   1.000000
    400         -7.457531   1.000000
    401         -7.457481   1.000000
    402         -7.457324   1.000000
    403         -7.457235   1.000000
    404         -7.456640   1.000000
    405         -7.456597   1.000000
    406         -7.455256   1.000000
    407         -7.455014   1.000000
    408         -7.454697   1.000000
    409         -7.454617   1.000000
    410         -7.418891   1.000000
    411         -7.418614   1.000000
    412         -7.418453   1.000000
    413         -7.418420   1.000000
    414         -7.406536   1.000000
    415         -7.406274   1.000000
    416         -7.406248   1.000000
    417         -7.406203   1.000000
    418         -7.404636   1.000000
    419         -7.404476   1.000000
    420         -7.383766   1.000000
    421         -7.383509   1.000000
    422         -7.376209   1.000000
    423         -7.376030   1.000000
    424         -7.372498   1.000000
    425         -7.364383   1.000000
    426         -7.363995   1.000000
    427         -7.327420   1.000000
    428         -7.327294   1.000000
    429         -7.327236   1.000000
    430         -7.327138   1.000000
    431         -7.266485   1.000000
    432         -7.266234   1.000000
    433         -7.266148   1.000000
    434         -7.266094   1.000000
    435         -7.266050   1.000000
    436         -7.265984   1.000000
    437         -7.260167   1.000000
    438         -7.260102   1.000000
    439         -7.238154   1.000000
    440         -7.237990   1.000000
    441         -7.220823   1.000000
    442         -7.220531   1.000000
    443         -7.220325   1.000000
    444         -7.220242   1.000000
    445         -7.216298   1.000000
    446         -7.216146   1.000000
    447         -7.176418   1.000000
    448         -7.176396   1.000000
    449         -7.175766   1.000000
    450         -7.175460   1.000000
    451         -7.175418   1.000000
    452         -7.175341   1.000000
    453         -7.098212   1.000000
    454         -7.098051   1.000000
    455         -7.097969   1.000000
    456         -7.097891   1.000000
    457         -7.092518   1.000000
    458         -7.085983   1.000000
    459         -7.085716   1.000000
    460         -7.051195   1.000000
    461         -7.050912   1.000000
    462         -7.050598   1.000000
    463         -7.050505   1.000000
    464         -7.049395   1.000000
    465         -7.049260   1.000000
    466         -7.049160   1.000000
    467         -7.049099   1.000000
    468         -7.043576   1.000000
    469         -7.043486   1.000000
    470         -7.043375   1.000000
    471         -7.043354   1.000000
    472         -7.028016   1.000000
    473         -7.027871   1.000000
    474         -7.008421   1.000000
    475         -7.007848   1.000000
    476         -7.001248   1.000000
    477         -7.001173   1.000000
    478         -7.000831   1.000000
    479         -7.000581   1.000000
    480         -6.964118   1.000000
    481         -6.963955   1.000000
    482         -6.920980   1.000000
    483         -6.920899   1.000000
    484         -6.907878   1.000000
    485         -6.907736   1.000000
    486         -6.848669   1.000000
    487         -6.665085   1.000000
    488         -6.664857   1.000000
    489         -6.643732   1.000000
    490         -6.642975   1.000000
    491         -6.597257   1.000000
    492         -6.597218   1.000000
    493         -6.592507   1.000000
    494         -6.592501   1.000000
    495         -6.592094   1.000000
    496         -6.591958   1.000000
    497         -6.558900   1.000000
    498         -6.558816   1.000000
    499         -6.558769   1.000000
    500         -6.558688   1.000000
    501         -6.508579   1.000000
    502         -6.508463   1.000000
    503         -6.507106   1.000000
    504         -6.506946   1.000000
    505         -6.505719   1.000000
    506         -6.505646   1.000000
    507         -6.505506   1.000000
    508         -6.505466   1.000000
    509         -6.504795   1.000000
    510         -6.504660   1.000000
    511         -6.504327   1.000000
    512         -6.504249   1.000000
    513         -6.465024   1.000000
    514         -6.463253   1.000000
    515         -6.463177   1.000000
    516         -6.463074   1.000000
    517         -6.463015   1.000000
    518         -6.461938   1.000000
    519         -6.461889   1.000000
    520         -6.456224   1.000000
    521         -6.455596   1.000000
    522         -6.419772   1.000000
    523         -6.419704   1.000000
    524         -6.409970   1.000000
    525         -6.409850   1.000000
    526         -6.409835   1.000000
    527         -6.409704   1.000000
    528         -6.408606   1.000000
    529         -6.408417   1.000000
    530         -6.408354   1.000000
    531         -6.408302   1.000000
    532         -6.405645   1.000000
    533         -6.405558   1.000000
    534         -6.399271   1.000000
    535         -6.395654   1.000000
    536         -6.395366   1.000000
    537         -6.387294   1.000000
    538         -6.387277   1.000000
    539         -6.387215   1.000000
    540         -6.387162   1.000000
    541         -6.385491   1.000000
    542         -6.385425   1.000000
    543         -6.380833   1.000000
    544         -6.341490   1.000000
    545         -6.341187   1.000000
    546         -6.341073   1.000000
    547         -6.340973   1.000000
    548         -6.321866   1.000000
    549         -6.321682   1.000000
    550         -6.318795   1.000000
    551         -6.318677   1.000000
    552         -6.318571   1.000000
    553         -6.318145   1.000000
    554         -6.300928   1.000000
    555         -6.300725   1.000000
    556         -6.293796   1.000000
    557         -6.293707   1.000000
    558         -6.293671   1.000000
    559         -6.293384   1.000000
    560         -6.289429   1.000000
    561         -6.289352   1.000000
    562         -6.289311   1.000000
    563         -6.288945   1.000000
    564         -6.281370   1.000000
    565         -6.281101   1.000000
    566         -6.277199   1.000000
    567         -6.277083   1.000000
    568         -6.277008   1.000000
    569         -6.276620   1.000000
    570         -6.274686   1.000000
    571         -6.274411   1.000000
    572         -6.266214   1.000000
    573         -6.265950   1.000000
    574         -6.265773   1.000000
    575         -6.265632   1.000000
    576         -6.257874   1.000000
    577         -6.257570   1.000000
    578         -6.257293   1.000000
    579         -6.257136   1.000000
    580         -6.256386   1.000000
    581         -6.256275   1.000000
    582         -6.256198   1.000000
    583         -6.255583   1.000000
    584         -6.227884   1.000000
    585         -6.227818   1.000000
    586         -6.214688   1.000000
    587         -6.214642   1.000000
    588         -6.214564   1.000000
    589         -6.214070   1.000000
    590         -6.199577   1.000000
    591         -6.199243   1.000000
    592         -6.192694   1.000000
    593         -6.192378   1.000000
    594         -6.176306   1.000000
    595         -5.793252   1.000000
    596         -5.793039   1.000000
    597         -5.791465   1.000000
    598         -5.791347   1.000000
    599         -5.778426   1.000000
    600         -5.778236   1.000000
    601         -5.735356   1.000000
    602         -5.735312   1.000000
    603         -5.735226   1.000000
    604         -5.735075   1.000000
    605         -5.692699   1.000000
    606         -5.692671   1.000000
    607         -5.692471   1.000000
    608         -5.692320   1.000000
    609         -5.666838   1.000000
    610         -5.666785   1.000000
    611         -5.666635   1.000000
    612         -5.666510   1.000000
    613         -5.654604   1.000000
    614         -5.654345   1.000000
    615         -5.643708   1.000000
    616         -5.643463   1.000000
    617         -5.626713   1.000000
    618         -5.624984   1.000000
    619         -5.624842   1.000000
    620         -5.606642   1.000000
    621         -5.606330   1.000000
    622         -5.603374   1.000000
    623         -5.603301   1.000000
    624         -5.603187   1.000000
    625         -5.602646   1.000000
    626         -5.594266   1.000000
    627         -5.594241   1.000000
    628         -5.594082   1.000000
    629         -5.593710   1.000000
    630         -5.556370   1.000000
    631         -5.556219   1.000000
    632         -5.555298   1.000000
    633         -5.554606   1.000000
    634         -5.542656   1.000000
    635         -5.542345   1.000000
    636         -5.536248   1.000000
    637         -5.536093   1.000000
    638         -5.536049   1.000000
    639         -5.535699   1.000000
    640         -5.495010   1.000000
    641         -5.493454   1.000000
    642         -5.493067   1.000000
    643         -5.481824   1.000000
    644         -5.481724   1.000000
    645         -5.481679   1.000000
    646         -5.481450   1.000000
    647         -5.481104   1.000000
    648         -5.481076   1.000000
    649         -5.480975   1.000000
    650         -5.480851   1.000000
    651         -5.441878   1.000000
    652         -5.441687   1.000000
    653         -5.436126   1.000000
    654         -5.435755   1.000000
    655         -5.435581   1.000000
    656         -5.435538   1.000000
    657         -5.434221   1.000000
    658         -5.434164   1.000000
    659         -5.434125   1.000000
    660         -5.433191   1.000000
    661         -5.425296   1.000000
    662         -5.425003   1.000000
    663         -5.417488   1.000000
    664         -5.417246   1.000000
    665         -5.392905   1.000000
    666         -5.392766   1.000000
    667         -5.392745   1.000000
    668         -5.392177   1.000000
    669         -5.370511   1.000000
    670         -5.370492   1.000000
    671         -5.370322   1.000000
    672         -5.370155   1.000000
    673         -5.352740   1.000000
    674         -5.352447   1.000000
    675         -5.342126   1.000000
    676         -5.334112   1.000000
    677         -5.334047   1.000000
    678         -5.333888   1.000000
    679         -5.333647   1.000000
    680         -5.292244   1.000000
    681         -5.292188   1.000000
    682         -5.291956   1.000000
    683         -5.291774   1.000000
    684         -5.291647   1.000000
    685         -5.291464   1.000000
    686         -5.291214   1.000000
    687         -5.285872   1.000000
    688         -5.285576   1.000000
    689         -5.261710   1.000000
    690         -5.261564   1.000000
    691         -5.261527   1.000000
    692         -5.261192   1.000000
    693         -5.237969   1.000000
    694         -5.234687   1.000000
    695         -5.234617   1.000000
    696         -5.232474   1.000000
    697         -5.232402   1.000000
    698         -5.225661   1.000000
    699         -5.225335   1.000000
    700         -5.225241   1.000000
    701         -5.225002   1.000000
    702         -5.221985   1.000000
    703         -5.221579   1.000000
    704         -5.221539   1.000000
    705         -5.221308   1.000000
    706         -5.214911   1.000000
    707         -5.214642   1.000000
    708         -5.191124   1.000000
    709         -5.190910   1.000000
    710         -5.177838   1.000000
    711         -5.177660   1.000000
    712         -5.177631   1.000000
    713         -5.177412   1.000000
    714         -5.174644   1.000000
    715         -5.174481   1.000000
    716         -5.148883   1.000000
    717         -5.148765   1.000000
    718         -5.141662   1.000000
    719         -5.141293   1.000000
    720         -5.119888   1.000000
    721         -5.119681   1.000000
    722         -5.119568   1.000000
    723         -5.119289   1.000000
    724         -5.100717   1.000000
    725         -5.100676   1.000000
    726         -5.100633   1.000000
    727         -5.099705   1.000000
    728         -5.095865   1.000000
    729         -5.095614   1.000000
    730         -5.093930   1.000000
    731         -5.093912   1.000000
    732         -5.093456   1.000000
    733         -5.093420   1.000000
    734         -5.069980   1.000000
    735         -5.069681   1.000000
    736         -5.060616   1.000000
    737         -5.060380   1.000000
    738         -5.060169   1.000000
    739         -5.060103   1.000000
    740         -5.058520   1.000000
    741         -5.057767   1.000000
    742         -5.030974   1.000000
    743         -5.030656   1.000000
    744         -5.021587   1.000000
    745         -5.021377   1.000000
    746         -5.021280   1.000000
    747         -5.020990   1.000000
    748         -5.019519   1.000000
    749         -5.019403   1.000000
    750         -5.019309   1.000000
    751         -5.018938   1.000000
    752         -4.989506   1.000000
    753         -4.989322   1.000000
    754         -4.963483   1.000000
    755         -4.947785   1.000000
    756         -4.947611   1.000000
    757         -4.842599   1.000000
    758         -4.842454   1.000000
    759         -4.805089   1.000000
    760         -4.804757   1.000000
    761         -4.794864   1.000000
    762         -4.794501   1.000000
    763         -4.794430   1.000000
    764         -4.794232   1.000000
    765         -4.792003   1.000000
    766         -4.791540   1.000000
    767         -4.753308   1.000000
    768         -4.724803   1.000000
    769         -4.724509   1.000000
    770         -4.724415   1.000000
    771         -4.724186   1.000000
    772         -4.707310   1.000000
    773         -4.707019   1.000000
    774         -4.706857   1.000000
    775         -4.706714   1.000000
    776         -4.701865   1.000000
    777         -4.701306   1.000000
    778         -4.687095   1.000000
    779         -4.686931   1.000000
    780         -4.686798   1.000000
    781         -4.686260   1.000000
    782         -4.664228   1.000000
    783         -4.664051   1.000000
    784         -4.658609   1.000000
    785         -4.658538   1.000000
    786         -4.658356   1.000000
    787         -4.658120   1.000000
    788         -4.633883   1.000000
    789         -4.633381   1.000000
    790         -4.622508   1.000000
    791         -4.622275   1.000000
    792         -4.622122   1.000000
    793         -4.621969   1.000000
    794         -4.613158   1.000000
    795         -4.612956   1.000000
    796         -4.589292   1.000000
    797         -4.588876   1.000000
    798         -4.588827   1.000000
    799         -4.588769   1.000000
    800         -4.588698   1.000000
    801         -4.574055   1.000000
    802         -4.573796   1.000000
    803         -4.573663   1.000000