 vasp.6.4.1 05Apr23 (build Jun  6 2023 14:36:51) complex                         
 executed on        HPECrayEX_GCC date 2024.08.20  14:47:36
 running  256 mpi-ranks, with    1 threads/rank, on    2 nodes
 distrk:  each k-point on  256 cores,    1 groups
 distr:  one band on NCORE=   2 cores,  128 groups


--------------------------------------------------------------------------------------------------------


 INCAR:
   ALGO = Conjugate
   NCORE = 2
   PREC = Accurate
   EDIFF = 1E-7
   ENCUT = 1000
   ISMEAR = 0
   SIGMA = 0.01
   ISIF = 0
   SYMPREC = 1E-7
   IVDW = 11
   LWAVE = .FALSE.
   LCHARGE = .FALSE.
   LWAVE = .FALSE.
   LCHARGE = .FALSE.

 POTCAR:    PAW_PBE C_h 06Feb2004                 
 POTCAR:    PAW_PBE O_h 06Feb2004                 
 POTCAR:    PAW_PBE N_h 06Feb2004                 
 POTCAR:    PAW_PBE H_h 06Feb2004                 
 POTCAR:    PAW_PBE C_h 06Feb2004                 
   VRHFIN =C: s2p2                                                                                  
   LEXCH  = PE                                                                                      
   EATOM  =   147.1560 eV,   10.8157 Ry                                                             
                                                                                                    
   TITEL  = PAW_PBE C_h 06Feb2004                                                                   
   LULTRA =        F    use ultrasoft PP ?                                                          
   IUNSCR =        1    unscreen: 0-lin 1-nonlin 2-no                                               
   RPACOR =    0.800    partial core radius                                                         
   POMASS =   12.011; ZVAL   =    4.000    mass and valenz                                          
   RCORE  =    1.100    outmost cutoff radius                                                       
   RWIGS  =    1.630; RWIGS  =    0.863    wigner-seitz radius (au A)                               
   ENMAX  =  700.000; ENMIN  =  500.000 eV                                                          
   ICORE  =        2    local potential                                                             
   LCOR   =        T    correct aug charges                                                         
   LPAW   =        T    paw PP                                                                      
   EAUG   =  946.768                                                                                
   DEXC   =    0.000                                                                                
   RMAX   =    1.128    core radius for proj-oper                                                   
   RAUG   =    1.300    factor for augmentation sphere                                              
   RDEP   =    1.162    radius for radial grids                                                     
   RDEPT  =    1.088    core radius for aug-charge                                                  
                                                                                                    
   Atomic configuration                                                                             
    4 entries                                                                                       
     n  l   j            E        occ.                                                              
     1  0  0.50      -273.3789   2.0000                                                             
     2  0  0.50       -13.7508   2.0000                                                             
     2  1  0.50        -5.2854   2.0000                                                             
     3  2  1.50        -5.4423   0.0000                                                             
   Description                                                                                      
     l       E           TYP  RCUT    TYP  RCUT                                                     
     0    -13.7508458     23  1.100                                                                 
     0     -8.2022199     23  1.100                                                                 
     1     -5.2854383     23  1.100                                                                 
     1      1.1560700     23  1.100                                                                 
     2     -5.4423304      7  1.100                                                                 
  local pseudopotential read in
  partial core-charges read in
  partial kinetic energy density read in
  atomic valenz-charges read in
  non local Contribution for L=           0  read in
    real space projection operators read in
  non local Contribution for L=           0  read in
    real space projection operators read in
  non local Contribution for L=           1  read in
    real space projection operators read in
  non local Contribution for L=           1  read in
    real space projection operators read in
    PAW grid and wavefunctions read in

   number of l-projection  operators is LMAX  =           4
   number of lm-projection operators is LMMAX =           8

 POTCAR:    PAW_PBE O_h 06Feb2004                 
   VRHFIN =O: s2p4                                                                                  
   LEXCH  = PE                                                                                      
   EATOM  =   432.3788 eV,   31.7789 Ry                                                             
                                                                                                    
   TITEL  = PAW_PBE O_h 06Feb2004                                                                   
   LULTRA =        F    use ultrasoft PP ?                                                          
   IUNSCR =        1    unscreen: 0-lin 1-nonlin 2-no                                               
   RPACOR =    0.800    partial core radius                                                         
   POMASS =   16.000; ZVAL   =    6.000    mass and valenz                                          
   RCORE  =    1.100    outmost cutoff radius                                                       
   RWIGS  =    1.400; RWIGS  =    0.741    wigner-seitz radius (au A)                               
   ENMAX  =  700.000; ENMIN  =  500.000 eV                                                          
   ICORE  =        2    local potential                                                             
   LCOR   =        T    correct aug charges                                                         
   LPAW   =        T    paw PP                                                                      
   EAUG   =  888.804                                                                                
   DEXC   =    0.000                                                                                
   RMAX   =    1.128    core radius for proj-oper                                                   
   RAUG   =    1.300    factor for augmentation sphere                                              
   RDEP   =    1.125    radius for radial grids                                                     
   RDEPT  =    1.088    core radius for aug-charge                                                  
                                                                                                    
   Atomic configuration                                                                             
    4 entries                                                                                       
     n  l   j            E        occ.                                                              
     1  0  0.50      -514.6923   2.0000                                                             
     2  0  0.50       -23.9615   2.0000                                                             
     2  1  0.50        -9.0305   4.0000                                                             
     3  2  1.50        -9.5241   0.0000                                                             
   Description                                                                                      
     l       E           TYP  RCUT    TYP  RCUT                                                     
     0    -23.9615319     23  1.100                                                                 
     0    -25.3221145     23  1.100                                                                 
     1     -9.0304911     23  1.100                                                                 
     1     -5.4802209     23  1.100                                                                 
     2     -9.5240782      7  1.100                                                                 
  local pseudopotential read in
  partial core-charges read in
  partial kinetic energy density read in
  atomic valenz-charges read in
  non local Contribution for L=           0  read in
    real space projection operators read in
  non local Contribution for L=           0  read in
    real space projection operators read in
  non local Contribution for L=           1  read in
    real space projection operators read in
  non local Contribution for L=           1  read in
    real space projection operators read in
    PAW grid and wavefunctions read in

   number of l-projection  operators is LMAX  =           4
   number of lm-projection operators is LMMAX =           8

 POTCAR:    PAW_PBE N_h 06Feb2004                 
   VRHFIN =N: s2p3                                                                                  
   LEXCH  = PE                                                                                      
   EATOM  =   264.5486 eV,   19.4438 Ry                                                             
                                                                                                    
   TITEL  = PAW_PBE N_h 06Feb2004                                                                   
   LULTRA =        F    use ultrasoft PP ?                                                          
   IUNSCR =        1    unscreen: 0-lin 1-nonlin 2-no                                               
   RPACOR =    0.800    partial core radius                                                         
   POMASS =   14.001; ZVAL   =    5.000    mass and valenz                                          
   RCORE  =    1.100    outmost cutoff radius                                                       
   RWIGS  =    1.480; RWIGS  =    0.783    wigner-seitz radius (au A)                               
   ENMAX  =  700.000; ENMIN  =  500.000 eV                                                          
   ICORE  =        2    local potential                                                             
   LCOR   =        T    correct aug charges                                                         
   LPAW   =        T    paw PP                                                                      
   EAUG   =  904.640                                                                                
   DEXC   =    0.000                                                                                
   RMAX   =    1.127    core radius for proj-oper                                                   
   RAUG   =    1.300    factor for augmentation sphere                                              
   RDEP   =    1.115    radius for radial grids                                                     
   RDEPT  =    1.106    core radius for aug-charge                                                  
                                                                                                    
   Atomic configuration                                                                             
    4 entries                                                                                       
     n  l   j            E        occ.                                                              
     1  0  0.50      -384.7179   2.0000                                                             
     2  0  0.50       -18.5828   2.0000                                                             
     2  1  0.50        -7.0898   3.0000                                                             
     3  2  1.50        -6.8029   0.0000                                                             
   Description                                                                                      
     l       E           TYP  RCUT    TYP  RCUT                                                     
     0    -18.5828117     23  1.100                                                                 
     0    -15.0750597     23  1.100                                                                 
     1     -7.0897851     23  1.100                                                                 
     1     -1.9663412     23  1.100                                                                 
     2     -6.8029130      7  1.100                                                                 
  local pseudopotential read in
  partial core-charges read in
  partial kinetic energy density read in
  kinetic energy density of atom read in
  atomic valenz-charges read in
  non local Contribution for L=           0  read in
    real space projection operators read in
  non local Contribution for L=           0  read in
    real space projection operators read in
  non local Contribution for L=           1  read in
    real space projection operators read in
  non local Contribution for L=           1  read in
    real space projection operators read in
    PAW grid and wavefunctions read in

   number of l-projection  operators is LMAX  =           4
   number of lm-projection operators is LMMAX =           8

 POTCAR:    PAW_PBE H_h 06Feb2004                 
   VRHFIN =H: ultrasoft test                                                                        
   LEXCH  = PE                                                                                      
   EATOM  =    12.4884 eV,    0.9179 Ry                                                             
                                                                                                    
   TITEL  = PAW_PBE H_h 06Feb2004                                                                   
   LULTRA =        F    use ultrasoft PP ?                                                          
   IUNSCR =        0    unscreen: 0-lin 1-nonlin 2-no                                               
   RPACOR =    0.000    partial core radius                                                         
   POMASS =    1.000; ZVAL   =    1.000    mass and valenz                                          
   RCORE  =    0.800    outmost cutoff radius                                                       
   RWIGS  =    0.700; RWIGS  =    0.370    wigner-seitz radius (au A)                               
   ENMAX  =  700.000; ENMIN  =  350.000 eV                                                          
   RCLOC  =    0.701    cutoff for local pot                                                        
   LCOR   =        T    correct aug charges                                                         
   LPAW   =        T    paw PP                                                                      
   EAUG   = 1000.000                                                                                
   RMAX   =    0.819    core radius for proj-oper                                                   
   RAUG   =    1.000    factor for augmentation sphere                                              
   RDEP   =    0.817    radius for radial grids                                                     
   RDEPT  =    0.817    core radius for aug-charge                                                  
                                                                                                    
   Atomic configuration                                                                             
    2 entries                                                                                       
     n  l   j            E        occ.                                                              
     1  0  0.50        -6.4927   1.0000                                                             
     2  1  0.50        -3.4015   0.0000                                                             
   Description                                                                                      
     l       E           TYP  RCUT    TYP  RCUT                                                     
     0     -6.4927493     23  0.800                                                                 
     0      6.8029130     23  0.800                                                                 
     1     -6.8029130     23  0.800                                                                 
  local pseudopotential read in
  atomic valenz-charges read in
  non local Contribution for L=           0  read in
    real space projection operators read in
  non local Contribution for L=           0  read in
    real space projection operators read in
  non local Contribution for L=           1  read in
    real space projection operators read in
    PAW grid and wavefunctions read in

   number of l-projection  operators is LMAX  =           3
   number of lm-projection operators is LMMAX =           5

  PAW_PBE C_h 06Feb2004                 :
 energy of atom  1       EATOM= -147.1560
 kinetic energy error for atom=    0.0031 (will be added to EATOM!!)
  PAW_PBE O_h 06Feb2004                 :
 energy of atom  2       EATOM= -432.3788
 kinetic energy error for atom=    0.0171 (will be added to EATOM!!)
  PAW_PBE N_h 06Feb2004                 :
 energy of atom  3       EATOM= -264.5486
 kinetic energy error for atom=    0.0081 (will be added to EATOM!!)
  PAW_PBE H_h 06Feb2004                 :
 energy of atom  4       EATOM=  -12.4884
 kinetic energy error for atom=    0.0006 (will be added to EATOM!!)


 POSCAR:  C  O  N  H
  positions in cartesian coordinates
  No initial velocities read in
 exchange correlation table for  LEXCH =        8
   RHO(1)=    0.500       N(1)  =     2000
   RHO(2)=  100.500       N(2)  =     4000

 VTST: version 4.1, (05/19/21)

 CHAIN: initializing optimizer
 
 OPT: Using VASP Dynamics algorithm
 CHAIN: Read ICHAIN            0

 POSCAR:  C  O  N  H
  positions in cartesian coordinates
  No initial velocities read in



--------------------------------------------------------------------------------------------------------


 ion  position               nearest neighbor table
   1  0.000  0.427  0.326-   3 1.27   5 1.35   6 1.35
   2  0.500  0.927  0.674-   4 1.27   8 1.35   7 1.35
   3  1.000  0.427  0.598-   1 1.27
   4  0.500  0.927  0.402-   2 1.27
   5  0.147  0.574  0.177-  13 1.02   9 1.02   1 1.35
   6  0.853  0.280  0.177-  14 1.02  10 1.02   1 1.35
   7  0.647  0.780  0.823-  15 1.02  11 1.02   2 1.35
   8  0.353  0.074  0.823-  16 1.02  12 1.02   2 1.35
   9  0.260  0.687  0.283-   5 1.02
  10  0.740  0.167  0.283-   6 1.02
  11  0.760  0.667  0.717-   7 1.02
  12  0.240  0.187  0.717-   8 1.02
  13  0.146  0.573  0.959-   5 1.02
  14  0.854  0.281  0.959-   6 1.02
  15  0.646  0.781  0.041-   7 1.02
  16  0.354  0.073  0.041-   8 1.02

  LATTYP: Found a simple tetragonal cell.
 ALAT       =     5.5650000000
 C/A-ratio  =     0.8416891285
  
  Lattice vectors:
  
 A1 = (   5.5650000000,   0.0000000000,   0.0000000000)
 A2 = (   0.0000000000,   5.5650000000,   0.0000000000)
 A3 = (   0.0000000000,   0.0000000000,   4.6840000000)


Analysis of symmetry for initial positions (statically):
=====================================================================
 Subroutine PRICEL returns:
 Original cell was already a primitive cell.
 

 Routine SETGRP: Setting up the symmetry group for a 
 simple tetragonal supercell.


 Subroutine GETGRP returns: Found  1 space group operations
 (whereof  1 operations were pure point group operations)
 out of a pool of 16 trial point group operations.


The static configuration has the point symmetry C_1 .


Analysis of symmetry for dynamics (positions and initial velocities):
=====================================================================
 Subroutine PRICEL returns:
 Original cell was already a primitive cell.
 

 Routine SETGRP: Setting up the symmetry group for a 
 simple tetragonal supercell.


 Subroutine GETGRP returns: Found  1 space group operations
 (whereof  1 operations were pure point group operations)
 out of a pool of 16 trial point group operations.


The dynamic configuration has the point symmetry C_1 .


 Subroutine INISYM returns: Found  1 space group operations
 (whereof  1 operations are pure point group operations),
 and found     1 'primitive' translations


----------------------------------------------------------------------------------------

                                     Primitive cell                                     

  volume of cell :     145.0598

  direct lattice vectors                    reciprocal lattice vectors
     5.565000000  0.000000000  0.000000000     0.179694519  0.000000000  0.000000000
     0.000000000  5.565000000  0.000000000     0.000000000  0.179694519  0.000000000
     0.000000000  0.000000000  4.684000000     0.000000000  0.000000000  0.213492741

  length of vectors
     5.565000000  5.565000000  4.684000000     0.179694519  0.179694519  0.213492741

  position of ions in fractional coordinates (direct lattice)
     0.000000146  0.427123573  0.326058672
     0.499999930  0.927122909  0.673941525
     0.999999854  0.427123350  0.597852280
     0.499999924  0.927123013  0.402147921
     0.146812264  0.573933227  0.176875004
     0.853187842  0.280313828  0.176875281
     0.646812221  0.780313118  0.823124997
     0.353187759  0.073932713  0.823124742
     0.260085855  0.687210944  0.282931726
     0.739913749  0.167035376  0.282931867
     0.760085891  0.667035345  0.717067948
     0.239913922  0.187210835  0.717067878
     0.145753410  0.572876866  0.959260297
     0.854246226  0.281369506  0.959260096
     0.645753561  0.781369328  0.040739795
     0.354246123  0.072876987  0.040739703

  ion indices of the primitive-cell ions
   primitive index   ion index
                 1           1
                 2           2
                 3           3
                 4           4
                 5           5
                 6           6
                 7           7
                 8           8
                 9           9
                10          10
                11          11
                12          12
                13          13
                14          14
                15          15
                16          16

----------------------------------------------------------------------------------------



 KPOINTS: auto                                    

Automatic generation of k-mesh.
 Grid dimensions read from file:
 generate k-points for:    5    5    6

 Generating k-lattice:

  Cartesian coordinates                     Fractional coordinates (reciprocal lattice)
     0.035938904  0.000000000  0.000000000     0.200000000  0.000000000  0.000000000
     0.000000000  0.035938904  0.000000000     0.000000000  0.200000000  0.000000000
     0.000000000  0.000000000  0.035582124     0.000000000  0.000000000  0.166666667

  Length of vectors
     0.035938904  0.035938904  0.035582124

  Shift w.r.t. Gamma in fractional coordinates (k-lattice)
     0.000000000  0.000000000  0.000000000

 
 Subroutine IBZKPT returns following result:
 ===========================================
 
 Found     76 irreducible k-points:
 
 Following reciprocal coordinates:
            Coordinates               Weight
  0.000000  0.000000  0.000000      1.000000
  0.200000  0.000000  0.000000      2.000000
  0.000000  0.200000  0.000000      2.000000
  0.400000  0.000000  0.000000      2.000000
  0.000000  0.400000  0.000000      2.000000
  0.200000  0.200000  0.000000      2.000000
 -0.200000  0.200000  0.000000      2.000000
  0.400000  0.200000  0.000000      2.000000
 -0.200000  0.400000  0.000000      2.000000
 -0.400000  0.200000  0.000000      2.000000
  0.200000  0.400000  0.000000      2.000000
  0.400000  0.400000  0.000000      2.000000
 -0.400000  0.400000  0.000000      2.000000
  0.000000  0.000000  0.166667      2.000000
  0.200000  0.000000  0.166667      2.000000
  0.000000  0.200000  0.166667      2.000000
 -0.200000  0.000000  0.166667      2.000000
  0.000000 -0.200000  0.166667      2.000000
  0.400000  0.000000  0.166667      2.000000
  0.000000  0.400000  0.166667      2.000000
 -0.400000  0.000000  0.166667      2.000000
  0.000000 -0.400000  0.166667      2.000000
  0.200000  0.200000  0.166667      2.000000
 -0.200000  0.200000  0.166667      2.000000
 -0.200000 -0.200000  0.166667      2.000000
  0.200000 -0.200000  0.166667      2.000000
  0.400000  0.200000  0.166667      2.000000
 -0.200000  0.400000  0.166667      2.000000
 -0.400000 -0.200000  0.166667      2.000000
  0.200000 -0.400000  0.166667      2.000000
 -0.400000  0.200000 -0.166667      2.000000
  0.200000  0.400000 -0.166667      2.000000
  0.400000 -0.200000 -0.166667      2.000000
 -0.200000 -0.400000 -0.166667      2.000000
  0.400000  0.400000  0.166667      2.000000
 -0.400000  0.400000  0.166667      2.000000
 -0.400000 -0.400000  0.166667      2.000000
  0.400000 -0.400000  0.166667      2.000000
  0.000000  0.000000  0.333333      2.000000
  0.200000  0.000000  0.333333      2.000000
  0.000000  0.200000  0.333333      2.000000
 -0.200000  0.000000  0.333333      2.000000
  0.000000 -0.200000  0.333333      2.000000
  0.400000  0.000000  0.333333      2.000000
  0.000000  0.400000  0.333333      2.000000
 -0.400000  0.000000  0.333333      2.000000
  0.000000 -0.400000  0.333333      2.000000
  0.200000  0.200000  0.333333      2.000000
 -0.200000  0.200000  0.333333      2.000000
 -0.200000 -0.200000  0.333333      2.000000
  0.200000 -0.200000  0.333333      2.000000
  0.400000  0.200000  0.333333      2.000000
 -0.200000  0.400000  0.333333      2.000000
 -0.400000 -0.200000  0.333333      2.000000
  0.200000 -0.400000  0.333333      2.000000
 -0.400000  0.200000 -0.333333      2.000000
  0.200000  0.400000 -0.333333      2.000000
  0.400000 -0.200000 -0.333333      2.000000
 -0.200000 -0.400000 -0.333333      2.000000
  0.400000  0.400000  0.333333      2.000000
 -0.400000  0.400000  0.333333      2.000000
 -0.400000 -0.400000  0.333333      2.000000
  0.400000 -0.400000  0.333333      2.000000
  0.000000  0.000000  0.500000      1.000000
  0.200000  0.000000  0.500000      2.000000
  0.000000  0.200000  0.500000      2.000000
  0.400000  0.000000  0.500000      2.000000
  0.000000  0.400000  0.500000      2.000000
  0.200000  0.200000  0.500000      2.000000
 -0.200000  0.200000  0.500000      2.000000
  0.400000  0.200000  0.500000      2.000000
 -0.200000  0.400000  0.500000      2.000000
 -0.400000  0.200000  0.500000      2.000000
  0.200000  0.400000  0.500000      2.000000
  0.400000  0.400000  0.500000      2.000000
 -0.400000  0.400000  0.500000      2.000000
 
 Following cartesian coordinates:
            Coordinates               Weight
  0.000000  0.000000  0.000000      1.000000
  0.035939  0.000000  0.000000      2.000000
  0.000000  0.035939  0.000000      2.000000
  0.071878  0.000000  0.000000      2.000000
  0.000000  0.071878  0.000000      2.000000
  0.035939  0.035939  0.000000      2.000000
 -0.035939  0.035939  0.000000      2.000000
  0.071878  0.035939  0.000000      2.000000
 -0.035939  0.071878  0.000000      2.000000
 -0.071878  0.035939  0.000000      2.000000
  0.035939  0.071878  0.000000      2.000000
  0.071878  0.071878  0.000000      2.000000
 -0.071878  0.071878  0.000000      2.000000
  0.000000  0.000000  0.035582      2.000000
  0.035939  0.000000  0.035582      2.000000
  0.000000  0.035939  0.035582      2.000000
 -0.035939  0.000000  0.035582      2.000000
  0.000000 -0.035939  0.035582      2.000000
  0.071878  0.000000  0.035582      2.000000
  0.000000  0.071878  0.035582      2.000000
 -0.071878  0.000000  0.035582      2.000000
  0.000000 -0.071878  0.035582      2.000000
  0.035939  0.035939  0.035582      2.000000
 -0.035939  0.035939  0.035582      2.000000
 -0.035939 -0.035939  0.035582      2.000000
  0.035939 -0.035939  0.035582      2.000000
  0.071878  0.035939  0.035582      2.000000
 -0.035939  0.071878  0.035582      2.000000
 -0.071878 -0.035939  0.035582      2.000000
  0.035939 -0.071878  0.035582      2.000000
 -0.071878  0.035939 -0.035582      2.000000
  0.035939  0.071878 -0.035582      2.000000
  0.071878 -0.035939 -0.035582      2.000000
 -0.035939 -0.071878 -0.035582      2.000000
  0.071878  0.071878  0.035582      2.000000
 -0.071878  0.071878  0.035582      2.000000
 -0.071878 -0.071878  0.035582      2.000000
  0.071878 -0.071878  0.035582      2.000000
  0.000000  0.000000  0.071164      2.000000
  0.035939  0.000000  0.071164      2.000000
  0.000000  0.035939  0.071164      2.000000
 -0.035939  0.000000  0.071164      2.000000
  0.000000 -0.035939  0.071164      2.000000
  0.071878  0.000000  0.071164      2.000000
  0.000000  0.071878  0.071164      2.000000
 -0.071878  0.000000  0.071164      2.000000
  0.000000 -0.071878  0.071164      2.000000
  0.035939  0.035939  0.071164      2.000000
 -0.035939  0.035939  0.071164      2.000000
 -0.035939 -0.035939  0.071164      2.000000
  0.035939 -0.035939  0.071164      2.000000
  0.071878  0.035939  0.071164      2.000000
 -0.035939  0.071878  0.071164      2.000000
 -0.071878 -0.035939  0.071164      2.000000
  0.035939 -0.071878  0.071164      2.000000
 -0.071878  0.035939 -0.071164      2.000000
  0.035939  0.071878 -0.071164      2.000000
  0.071878 -0.035939 -0.071164      2.000000
 -0.035939 -0.071878 -0.071164      2.000000
  0.071878  0.071878  0.071164      2.000000
 -0.071878  0.071878  0.071164      2.000000
 -0.071878 -0.071878  0.071164      2.000000
  0.071878 -0.071878  0.071164      2.000000
  0.000000  0.000000  0.106746      1.000000
  0.035939  0.000000  0.106746      2.000000
  0.000000  0.035939  0.106746      2.000000
  0.071878  0.000000  0.106746      2.000000
  0.000000  0.071878  0.106746      2.000000
  0.035939  0.035939  0.106746      2.000000
 -0.035939  0.035939  0.106746      2.000000
  0.071878  0.035939  0.106746      2.000000
 -0.035939  0.071878  0.106746      2.000000
 -0.071878  0.035939  0.106746      2.000000
  0.035939  0.071878  0.106746      2.000000
  0.071878  0.071878  0.106746      2.000000
 -0.071878  0.071878  0.106746      2.000000
 


--------------------------------------------------------------------------------------------------------




 Dimension of arrays:
   k-points           NKPTS =     76   k-points in BZ     NKDIM =     76   number of bands    NBANDS=    128
   number of dos      NEDOS =    301   number of ions     NIONS =     16
   non local maximal  LDIM  =      4   non local SUM 2l+1 LMDIM =      8
   total plane-waves  NPLWV = 172800
   max r-space proj   IRMAX =      1   max aug-charges    IRDMAX=   8886
   dimension x,y,z NGX =    60 NGY =   60 NGZ =   48
   dimension x,y,z NGXF=   120 NGYF=  120 NGZF=   96
   support grid    NGXF=   120 NGYF=  120 NGZF=   96
   ions per type =               2   2   4   8
   NGX,Y,Z   is equivalent  to a cutoff of  17.92, 17.92, 17.04 a.u.
   NGXF,Y,Z  is equivalent  to a cutoff of  35.85, 35.85, 34.07 a.u.

 SYSTEM =  unknown system                          
 POSCAR =   C  O  N  H                             

 Startparameter for this run:
   NWRITE =      2    write-flag & timer
   PREC   = accura    normal or accurate (medium, high low for compatibility)
   ISTART =      0    job   : 0-new  1-cont  2-samecut
   ICHARG =      2    charge: 1-file 2-atom 10-const
   ISPIN  =      1    spin polarized calculation?
   LNONCOLLINEAR =      F non collinear calculations
   LSORBIT =      F    spin-orbit coupling
   INIWAV =      1    electr: 0-lowe 1-rand  2-diag
   LASPH  =      F    aspherical Exc in radial PAW
 Electronic Relaxation 1
   ENCUT  = 1000.0 eV  73.50 Ry    8.57 a.u.  14.35 14.35 12.08*2*pi/ulx,y,z
   ENINI  = 1000.0     initial cutoff
   ENAUG  = 1000.0 eV  augmentation charge cutoff
   NELM   =     60;   NELMIN=  2; NELMDL= -5     # of ELM steps 
   EDIFF  = 0.1E-06   stopping-criterion for ELM
   LREAL  =      F    real-space projection
   NLSPLINE    = F    spline interpolate recip. space projectors
   LCOMPAT=      F    compatible to vasp.4.4
   GGA_COMPAT  = T    GGA compatible to vasp.4.4-vasp.4.6
   LMAXPAW     = -100 max onsite density
   LMAXMIX     =    2 max onsite mixed and CHGCAR
   VOSKOWN=      0    Vosko Wilk Nusair interpolation
   ROPT   =    0.00000   0.00000   0.00000   0.00000
 Ionic relaxation
   EDIFFG = 0.1E-05   stopping-criterion for IOM
   NSW    =      0    number of steps for IOM
   NBLOCK =      1;   KBLOCK =      1    inner block; outer block 
   IBRION =     -1    ionic relax: 0-MD 1-quasi-New 2-CG
   NFREE  =      0    steps in history (QN), initial steepest desc. (CG)
   ISIF   =      0    stress and relaxation
   IWAVPR =     10    prediction:  0-non 1-charg 2-wave 3-comb
   ISYM   =      2    0-nonsym 1-usesym 2-fastsym
   LCORR  =      T    Harris-Foulkes like correction to forces

   POTIM  = 0.5000    time-step for ionic-motion
   TEIN   =    0.0    initial temperature
   TEBEG  =    0.0;   TEEND  =   0.0 temperature during run
   SMASS  =  -3.00    Nose mass-parameter (am)
   estimated Nose-frequenzy (Omega)   =  0.10E-29 period in steps = 0.13E+47 mass=  -0.708E-27a.u.
   SCALEE = 1.0000    scale energy and forces
   NPACO  =    256;   APACO  = 10.0  distance and # of slots for P.C.
   PSTRESS=    0.0 pullay stress

  Mass of Ions in am
   POMASS =  12.01 16.00 14.00  1.00
  Ionic Valenz
   ZVAL   =   4.00  6.00  5.00  1.00
  Atomic Wigner-Seitz radii
   RWIGS  =  -1.00 -1.00 -1.00 -1.00
  virtual crystal weights 
   VCA    =   1.00  1.00  1.00  1.00
   NELECT =      48.0000    total number of electrons
   NUPDOWN=      -1.0000    fix difference up-down

 DOS related values:
   EMIN   =  10.00;   EMAX   =-10.00  energy-range for DOS
   EFERMI =   0.00;   METHOD = LEGACY      
   ISMEAR =     0;   SIGMA  =   0.01  broadening in eV -4-tet -1-fermi 0-gaus

 Electronic relaxation 2 (details)
   IALGO  =     58    algorithm
   LDIAG  =      T    sub-space diagonalisation (order eigenvalues)
   LSUBROT=      F    optimize rotation matrix (better conditioning)
   TURBO    =      0    0=normal 1=particle mesh
   IRESTART =      0    0=no restart 2=restart with 2 vectors
   NREBOOT  =      0    no. of reboots
   NMIN     =      0    reboot dimension
   EREF     =   0.00    reference energy to select bands
   IMIX   =      4    mixing-type and parameters
     AMIX     =   0.40;   BMIX     =  1.00
     AMIX_MAG =   1.60;   BMIX_MAG =  1.00
     AMIN     =   0.10
     WC   =   100.;   INIMIX=   1;  MIXPRE=   1;  MAXMIX= -45

 Intra band minimization:
   WEIMIN = 0.0000     energy-eigenvalue tresh-hold
   EBREAK =  0.20E-09  absolut break condition
   DEPER  =   0.30     relativ break condition  

   TIME   =   0.40     timestep for ELM

  volume/ion in A,a.u.               =       9.07        61.18
  Fermi-wavevector in a.u.,A,eV,Ry     =   1.132330  2.139793 17.444984  1.282170
  Thomas-Fermi vector in A             =   2.269030

 Write flags
   LWAVE        =      F    write WAVECAR
   LDOWNSAMPLE  =      F    k-point downsampling of WAVECAR
   LCHARG       =      T    write CHGCAR
   LVTOT        =      F    write LOCPOT, total local potential
   LVHAR        =      F    write LOCPOT, Hartree potential only
   LELF         =      F    write electronic localiz. function (ELF)
   LORBIT       =      0    0 simple, 1 ext, 2 COOP (PROOUT), +10 PAW based schemes


 Dipole corrections
   LMONO  =      F    monopole corrections only (constant potential shift)
   LDIPOL =      F    correct potential (dipole corrections)
   IDIPOL =      0    1-x, 2-y, 3-z, 4-all directions 
   EPSILON=  1.0000000 bulk dielectric constant

 Exchange correlation treatment:
   GGA     =    --    GGA type
   LEXCH   =     8    internal setting for exchange type
   LIBXC   =     F    Libxc                    
   VOSKOWN =     0    Vosko Wilk Nusair interpolation
   LHFCALC =     F    Hartree Fock is set to
   LHFONE  =     F    Hartree Fock one center treatment
   AEXX    =    0.0000 exact exchange contribution

 Linear response parameters
   LEPSILON=     F    determine dielectric tensor
   LRPA    =     F    only Hartree local field effects (RPA)
   LNABLA  =     F    use nabla operator in PAW spheres
   LVEL    =     F    velocity operator in full k-point grid
   CSHIFT  =0.1000    complex shift for real part using Kramers Kronig
   OMEGAMAX=  -1.0    maximum frequency
   DEG_THRESHOLD= 0.2000000E-02 threshold for treating states as degnerate
   RTIME   =   -0.100 relaxation time in fs
  (WPLASMAI=    0.000 imaginary part of plasma frequency in eV, 0.658/RTIME)
   DFIELD  = 0.0000000 0.0000000 0.0000000 field for delta impulse in time

  Optional k-point grid parameters
   LKPOINTS_OPT  =     F    use optional k-point grid
   KPOINTS_OPT_MODE=     1    mode for optional k-point grid

 Orbital magnetization related:
   ORBITALMAG=     F  switch on orbital magnetization
   LCHIMAG   =     F  perturbation theory with respect to B field
   DQ        =  0.001000  dq finite difference perturbation B field
   LLRAUG    =     F  two centre corrections for induced B field
   LBONE     =     F  B-component reconstruction in AE one-centre
   LVGVCALC  =     T  calculate vGv susceptibility
   LVGVAPPL  =     F  apply vGv susceptibility instead of pGv for G=0

 Random number generation:
   RANDOM_GENERATOR = DEFAULT
   PCG_SEED         = not used


--------------------------------------------------------------------------------------------------------


 Static calculation
 charge density and potential will be updated during run
 non-spin polarized calculation
 Conjugate gradient for all bands (Freysoldt, et al. PRB 79, 241103 (2009))
 preconditioned conjugated gradient                                        
 perform sub-space diagonalisation
    before iterative eigenvector-optimisation
 modified Broyden-mixing scheme, WC =      100.0
 initial mixing is a Kerker type mixing with AMIX =  0.4000 and BMIX =      1.0000
 Hartree-type preconditioning will be used
 using additional bands          104
 reciprocal scheme for non local part
 use partial core corrections
 no Harris-corrections to forces 
 use gradient corrections 
 use of overlap-Matrix (Vanderbilt PP)
 Gauss-broadening in eV      SIGMA  =   0.01


--------------------------------------------------------------------------------------------------------


  energy-cutoff  :     1000.00
  volume of cell :      145.06
      direct lattice vectors                 reciprocal lattice vectors
     5.565000000  0.000000000  0.000000000     0.179694519  0.000000000  0.000000000
     0.000000000  5.565000000  0.000000000     0.000000000  0.179694519  0.000000000
     0.000000000  0.000000000  4.684000000     0.000000000  0.000000000  0.213492741

  length of vectors
     5.565000000  5.565000000  4.684000000     0.179694519  0.179694519  0.213492741



 k-points in units of 2pi/SCALE and weight: auto                                    
   0.00000000  0.00000000  0.00000000       0.007
   0.03593890  0.00000000  0.00000000       0.013
   0.00000000  0.03593890  0.00000000       0.013
   0.07187781  0.00000000  0.00000000       0.013
   0.00000000  0.07187781  0.00000000       0.013
   0.03593890  0.03593890  0.00000000       0.013
  -0.03593890  0.03593890  0.00000000       0.013
   0.07187781  0.03593890  0.00000000       0.013
  -0.03593890  0.07187781  0.00000000       0.013
  -0.07187781  0.03593890  0.00000000       0.013
   0.03593890  0.07187781  0.00000000       0.013
   0.07187781  0.07187781  0.00000000       0.013
  -0.07187781  0.07187781  0.00000000       0.013
   0.00000000  0.00000000  0.03558212       0.013
   0.03593890  0.00000000  0.03558212       0.013
   0.00000000  0.03593890  0.03558212       0.013
  -0.03593890  0.00000000  0.03558212       0.013
   0.00000000 -0.03593890  0.03558212       0.013
   0.07187781  0.00000000  0.03558212       0.013
   0.00000000  0.07187781  0.03558212       0.013
  -0.07187781  0.00000000  0.03558212       0.013
   0.00000000 -0.07187781  0.03558212       0.013
   0.03593890  0.03593890  0.03558212       0.013
  -0.03593890  0.03593890  0.03558212       0.013
  -0.03593890 -0.03593890  0.03558212       0.013
   0.03593890 -0.03593890  0.03558212       0.013
   0.07187781  0.03593890  0.03558212       0.013
  -0.03593890  0.07187781  0.03558212       0.013
  -0.07187781 -0.03593890  0.03558212       0.013
   0.03593890 -0.07187781  0.03558212       0.013
  -0.07187781  0.03593890 -0.03558212       0.013
   0.03593890  0.07187781 -0.03558212       0.013
   0.07187781 -0.03593890 -0.03558212       0.013
  -0.03593890 -0.07187781 -0.03558212       0.013
   0.07187781  0.07187781  0.03558212       0.013
  -0.07187781  0.07187781  0.03558212       0.013
  -0.07187781 -0.07187781  0.03558212       0.013
   0.07187781 -0.07187781  0.03558212       0.013
   0.00000000  0.00000000  0.07116425       0.013
   0.03593890  0.00000000  0.07116425       0.013
   0.00000000  0.03593890  0.07116425       0.013
  -0.03593890  0.00000000  0.07116425       0.013
   0.00000000 -0.03593890  0.07116425       0.013
   0.07187781  0.00000000  0.07116425       0.013
   0.00000000  0.07187781  0.07116425       0.013
  -0.07187781  0.00000000  0.07116425       0.013
   0.00000000 -0.07187781  0.07116425       0.013
   0.03593890  0.03593890  0.07116425       0.013
  -0.03593890  0.03593890  0.07116425       0.013
  -0.03593890 -0.03593890  0.07116425       0.013
   0.03593890 -0.03593890  0.07116425       0.013
   0.07187781  0.03593890  0.07116425       0.013
  -0.03593890  0.07187781  0.07116425       0.013
  -0.07187781 -0.03593890  0.07116425       0.013
   0.03593890 -0.07187781  0.07116425       0.013
  -0.07187781  0.03593890 -0.07116425       0.013
   0.03593890  0.07187781 -0.07116425       0.013
   0.07187781 -0.03593890 -0.07116425       0.013
  -0.03593890 -0.07187781 -0.07116425       0.013
   0.07187781  0.07187781  0.07116425       0.013
  -0.07187781  0.07187781  0.07116425       0.013
  -0.07187781 -0.07187781  0.07116425       0.013
   0.07187781 -0.07187781  0.07116425       0.013
   0.00000000  0.00000000  0.10674637       0.007
   0.03593890  0.00000000  0.10674637       0.013
   0.00000000  0.03593890  0.10674637       0.013
   0.07187781  0.00000000  0.10674637       0.013
   0.00000000  0.07187781  0.10674637       0.013
   0.03593890  0.03593890  0.10674637       0.013
  -0.03593890  0.03593890  0.10674637       0.013
   0.07187781  0.03593890  0.10674637       0.013
  -0.03593890  0.07187781  0.10674637       0.013
  -0.07187781  0.03593890  0.10674637       0.013
   0.03593890  0.07187781  0.10674637       0.013
   0.07187781  0.07187781  0.10674637       0.013
  -0.07187781  0.07187781  0.10674637       0.013

 k-points in reciprocal lattice and weights: auto                                    
   0.00000000  0.00000000  0.00000000       0.007
   0.20000000  0.00000000  0.00000000       0.013
   0.00000000  0.20000000  0.00000000       0.013
   0.40000000  0.00000000  0.00000000       0.013
   0.00000000  0.40000000  0.00000000       0.013
   0.20000000  0.20000000  0.00000000       0.013
  -0.20000000  0.20000000  0.00000000       0.013
   0.40000000  0.20000000  0.00000000       0.013
  -0.20000000  0.40000000  0.00000000       0.013
  -0.40000000  0.20000000  0.00000000       0.013
   0.20000000  0.40000000  0.00000000       0.013
   0.40000000  0.40000000  0.00000000       0.013
  -0.40000000  0.40000000  0.00000000       0.013
   0.00000000  0.00000000  0.16666667       0.013
   0.20000000  0.00000000  0.16666667       0.013
   0.00000000  0.20000000  0.16666667       0.013
  -0.20000000  0.00000000  0.16666667       0.013
   0.00000000 -0.20000000  0.16666667       0.013
   0.40000000  0.00000000  0.16666667       0.013
   0.00000000  0.40000000  0.16666667       0.013
  -0.40000000  0.00000000  0.16666667       0.013
   0.00000000 -0.40000000  0.16666667       0.013
   0.20000000  0.20000000  0.16666667       0.013
  -0.20000000  0.20000000  0.16666667       0.013
  -0.20000000 -0.20000000  0.16666667       0.013
   0.20000000 -0.20000000  0.16666667       0.013
   0.40000000  0.20000000  0.16666667       0.013
  -0.20000000  0.40000000  0.16666667       0.013
  -0.40000000 -0.20000000  0.16666667       0.013
   0.20000000 -0.40000000  0.16666667       0.013
  -0.40000000  0.20000000 -0.16666667       0.013
   0.20000000  0.40000000 -0.16666667       0.013
   0.40000000 -0.20000000 -0.16666667       0.013
  -0.20000000 -0.40000000 -0.16666667       0.013
   0.40000000  0.40000000  0.16666667       0.013
  -0.40000000  0.40000000  0.16666667       0.013
  -0.40000000 -0.40000000  0.16666667       0.013
   0.40000000 -0.40000000  0.16666667       0.013
   0.00000000  0.00000000  0.33333333       0.013
   0.20000000  0.00000000  0.33333333       0.013
   0.00000000  0.20000000  0.33333333       0.013
  -0.20000000  0.00000000  0.33333333       0.013
   0.00000000 -0.20000000  0.33333333       0.013
   0.40000000  0.00000000  0.33333333       0.013
   0.00000000  0.40000000  0.33333333       0.013
  -0.40000000  0.00000000  0.33333333       0.013
   0.00000000 -0.40000000  0.33333333       0.013
   0.20000000  0.20000000  0.33333333       0.013
  -0.20000000  0.20000000  0.33333333       0.013
  -0.20000000 -0.20000000  0.33333333       0.013
   0.20000000 -0.20000000  0.33333333       0.013
   0.40000000  0.20000000  0.33333333       0.013
  -0.20000000  0.40000000  0.33333333       0.013
  -0.40000000 -0.20000000  0.33333333       0.013
   0.20000000 -0.40000000  0.33333333       0.013
  -0.40000000  0.20000000 -0.33333333       0.013
   0.20000000  0.40000000 -0.33333333       0.013
   0.40000000 -0.20000000 -0.33333333       0.013
  -0.20000000 -0.40000000 -0.33333333       0.013
   0.40000000  0.40000000  0.33333333       0.013
  -0.40000000  0.40000000  0.33333333       0.013
  -0.40000000 -0.40000000  0.33333333       0.013
   0.40000000 -0.40000000  0.33333333       0.013
   0.00000000  0.00000000  0.50000000       0.007
   0.20000000  0.00000000  0.50000000       0.013
   0.00000000  0.20000000  0.50000000       0.013
   0.40000000  0.00000000  0.50000000       0.013
   0.00000000  0.40000000  0.50000000       0.013
   0.20000000  0.20000000  0.50000000       0.013
  -0.20000000  0.20000000  0.50000000       0.013
   0.40000000  0.20000000  0.50000000       0.013
  -0.20000000  0.40000000  0.50000000       0.013
  -0.40000000  0.20000000  0.50000000       0.013
   0.20000000  0.40000000  0.50000000       0.013
   0.40000000  0.40000000  0.50000000       0.013
  -0.40000000  0.40000000  0.50000000       0.013

 position of ions in fractional coordinates (direct lattice) 
   0.00000015  0.42712357  0.32605867
   0.49999993  0.92712291  0.67394153
   0.99999985  0.42712335  0.59785228
   0.49999992  0.92712301  0.40214792
   0.14681226  0.57393323  0.17687500
   0.85318784  0.28031383  0.17687528
   0.64681222  0.78031312  0.82312500
   0.35318776  0.07393271  0.82312474
   0.26008585  0.68721094  0.28293173
   0.73991375  0.16703538  0.28293187
   0.76008589  0.66703534  0.71706795
   0.23991392  0.18721083  0.71706788
   0.14575341  0.57287687  0.95926030
   0.85424623  0.28136951  0.95926010
   0.64575356  0.78136933  0.04073979
   0.35424612  0.07287699  0.04073970

 position of ions in cartesian coordinates  (Angst):
   0.00000082  2.37694268  1.52725882
   2.78249961  5.15943899  3.15674210
   5.56499918  2.37694144  2.80034008
   2.78249958  5.15943957  1.88366086
   0.81701025  3.19393841  0.82848252
   4.74799034  1.55994645  0.82848382
   3.59951001  4.34244250  3.85551749
   1.96548988  0.41143555  3.85551629
   1.44737778  3.82432890  1.32525221
   4.11762001  0.92955187  1.32525286
   4.22987798  3.71205169  3.35874627
   1.33512097  1.04182830  3.35874594
   0.81111773  3.18805976  4.49317523
   4.75388025  1.56582130  4.49317429
   3.59361857  4.34832031  0.19082520
   1.97137967  0.40556043  0.19082477



--------------------------------------------------------------------------------------------------------


 k-point   1 :   0.0000 0.0000 0.0000  plane waves:   10417
 k-point   2 :   0.2000 0.0000 0.0000  plane waves:   10421
 k-point   3 :   0.0000 0.2000 0.0000  plane waves:   10421
 k-point   4 :   0.4000 0.0000 0.0000  plane waves:   10374
 k-point   5 :   0.0000 0.4000 0.0000  plane waves:   10374
 k-point   6 :   0.2000 0.2000 0.0000  plane waves:   10400
 k-point   7 :  -0.2000 0.2000 0.0000  plane waves:   10400
 k-point   8 :   0.4000 0.2000 0.0000  plane waves:   10408
 k-point   9 :  -0.2000 0.4000 0.0000  plane waves:   10408
 k-point  10 :  -0.4000 0.2000 0.0000  plane waves:   10408
 k-point  11 :   0.2000 0.4000 0.0000  plane waves:   10408
 k-point  12 :   0.4000 0.4000 0.0000  plane waves:   10434
 k-point  13 :  -0.4000 0.4000 0.0000  plane waves:   10434
 k-point  14 :   0.0000 0.0000 0.1667  plane waves:   10412
 k-point  15 :   0.2000 0.0000 0.1667  plane waves:   10423
 k-point  16 :   0.0000 0.2000 0.1667  plane waves:   10423
 k-point  17 :  -0.2000 0.0000 0.1667  plane waves:   10423
 k-point  18 :   0.0000-0.2000 0.1667  plane waves:   10423
 k-point  19 :   0.4000 0.0000 0.1667  plane waves:   10411
 k-point  20 :   0.0000 0.4000 0.1667  plane waves:   10411
 k-point  21 :  -0.4000 0.0000 0.1667  plane waves:   10411
 k-point  22 :   0.0000-0.4000 0.1667  plane waves:   10411
 k-point  23 :   0.2000 0.2000 0.1667  plane waves:   10421
 k-point  24 :  -0.2000 0.2000 0.1667  plane waves:   10421
 k-point  25 :  -0.2000-0.2000 0.1667  plane waves:   10421
 k-point  26 :   0.2000-0.2000 0.1667  plane waves:   10421
 k-point  27 :   0.4000 0.2000 0.1667  plane waves:   10412
 k-point  28 :  -0.2000 0.4000 0.1667  plane waves:   10412
 k-point  29 :  -0.4000-0.2000 0.1667  plane waves:   10412
 k-point  30 :   0.2000-0.4000 0.1667  plane waves:   10412
 k-point  31 :  -0.4000 0.2000-0.1667  plane waves:   10412
 k-point  32 :   0.2000 0.4000-0.1667  plane waves:   10412
 k-point  33 :   0.4000-0.2000-0.1667  plane waves:   10412
 k-point  34 :  -0.2000-0.4000-0.1667  plane waves:   10412
 k-point  35 :   0.4000 0.4000 0.1667  plane waves:   10400
 k-point  36 :  -0.4000 0.4000 0.1667  plane waves:   10400
 k-point  37 :  -0.4000-0.4000 0.1667  plane waves:   10400
 k-point  38 :   0.4000-0.4000 0.1667  plane waves:   10400
 k-point  39 :   0.0000 0.0000 0.3333  plane waves:   10424
 k-point  40 :   0.2000 0.0000 0.3333  plane waves:   10416
 k-point  41 :   0.0000 0.2000 0.3333  plane waves:   10416
 k-point  42 :  -0.2000 0.0000 0.3333  plane waves:   10416
 k-point  43 :   0.0000-0.2000 0.3333  plane waves:   10416
 k-point  44 :   0.4000 0.0000 0.3333  plane waves:   10420
 k-point  45 :   0.0000 0.4000 0.3333  plane waves:   10420
 k-point  46 :  -0.4000 0.0000 0.3333  plane waves:   10420
 k-point  47 :   0.0000-0.4000 0.3333  plane waves:   10420
 k-point  48 :   0.2000 0.2000 0.3333  plane waves:   10430
 k-point  49 :  -0.2000 0.2000 0.3333  plane waves:   10430
 k-point  50 :  -0.2000-0.2000 0.3333  plane waves:   10430
 k-point  51 :   0.2000-0.2000 0.3333  plane waves:   10430
 k-point  52 :   0.4000 0.2000 0.3333  plane waves:   10418
 k-point  53 :  -0.2000 0.4000 0.3333  plane waves:   10418
 k-point  54 :  -0.4000-0.2000 0.3333  plane waves:   10418
 k-point  55 :   0.2000-0.4000 0.3333  plane waves:   10418
 k-point  56 :  -0.4000 0.2000-0.3333  plane waves:   10418
 k-point  57 :   0.2000 0.4000-0.3333  plane waves:   10418
 k-point  58 :   0.4000-0.2000-0.3333  plane waves:   10418
 k-point  59 :  -0.2000-0.4000-0.3333  plane waves:   10418
 k-point  60 :   0.4000 0.4000 0.3333  plane waves:   10412
 k-point  61 :  -0.4000 0.4000 0.3333  plane waves:   10412
 k-point  62 :  -0.4000-0.4000 0.3333  plane waves:   10412
 k-point  63 :   0.4000-0.4000 0.3333  plane waves:   10412
 k-point  64 :   0.0000 0.0000 0.5000  plane waves:   10456
 k-point  65 :   0.2000 0.0000 0.5000  plane waves:   10434
 k-point  66 :   0.0000 0.2000 0.5000  plane waves:   10434
 k-point  67 :   0.4000 0.0000 0.5000  plane waves:   10440
 k-point  68 :   0.0000 0.4000 0.5000  plane waves:   10440
 k-point  69 :   0.2000 0.2000 0.5000  plane waves:   10410
 k-point  70 :  -0.2000 0.2000 0.5000  plane waves:   10410
 k-point  71 :   0.4000 0.2000 0.5000  plane waves:   10418
 k-point  72 :  -0.2000 0.4000 0.5000  plane waves:   10418
 k-point  73 :  -0.4000 0.2000 0.5000  plane waves:   10418
 k-point  74 :   0.2000 0.4000 0.5000  plane waves:   10418
 k-point  75 :   0.4000 0.4000 0.5000  plane waves:   10420
 k-point  76 :  -0.4000 0.4000 0.5000  plane waves:   10420

 maximum and minimum number of plane-waves per node :      5244     5174

 maximum number of plane-waves:     10456
 maximum index in each direction: 
   IXMAX=   14   IYMAX=   14   IZMAX=   12
   IXMIN=  -14   IYMIN=  -14   IZMIN=  -12


 parallel 3D FFT for wavefunctions:
    minimum data exchange during FFTs selected (reduces bandwidth)
 parallel 3D FFT for charge:
    minimum data exchange during FFTs selected (reduces bandwidth)


 total amount of memory used by VASP MPI-rank0   160409. kBytes
=======================================================================

   base      :      30000. kBytes
   nonl-proj :     103448. kBytes
   fftplans  :       2999. kBytes
   grid      :       4327. kBytes
   one-center:         24. kBytes
   wavefun   :      19611. kBytes

     INWAV:  cpu time      0.0001: real time      0.0003
 Broyden mixing: mesh for mixing (old mesh)
   NGX = 29   NGY = 29   NGZ = 25
  (NGX  =120   NGY  =120   NGZ  = 96)
  gives a total of  21025 points

 initial charge density was supplied:
 charge density of overlapping atoms calculated
 number of electron      48.0000000 magnetization 
 keeping initial charge density in first step


--------------------------------------------------------------------------------------------------------


 Maximum index for augmentation-charges          493 (set IRDMAX)


--------------------------------------------------------------------------------------------------------


 First call to EWALD:  gamma=   0.337
 Maximum number of real-space cells 3x 3x 3
 Maximum number of reciprocal cells 3x 3x 3

    FEWALD:  cpu time      0.0015: real time      0.0015


--------------------------------------- Ionic step        1  -------------------------------------------




--------------------------------------- Iteration      1(   1)  ---------------------------------------


    POTLOK:  cpu time      0.0454: real time      0.0472
    SETDIJ:  cpu time      0.0081: real time      0.0086
    TRIAL :  cpu time     40.7561: real time     40.7776
    CORREC:  cpu time      0.0014: real time      0.0015
    --------------------------------------------
      LOOP:  cpu time     40.8395: real time     40.8634

 eigenvalue-minimisations  : 19456
 total energy-change (2. order) : 0.9047996E+02  (-0.5074740E+04)
 number of electron      48.0000000 magnetization 
 augmentation part       48.0000000 magnetization 

 Free energy of the ion-electron system (eV)
  ---------------------------------------------------
  alpha Z        PSCENC =        45.44424880
  Ewald energy   TEWEN  =     -1112.25898815
  -Hartree energ DENC   =      -975.75293079
  -exchange      EXHF   =         0.00000000
  -V(xc)+E(xc)   XCENC  =       154.01170394
  PAW double counting   =      1759.03600353    -1745.69672655
  entropy T*S    EENTRO =        -0.00008604
  eigenvalues    EBANDS =      -351.39669132
  atomic energy  EATOM  =      2317.09342707
  ---------------------------------------------------
  free energy    TOTEN  =        90.47996048 eV

  energy without entropy =       90.48004652  energy(sigma->0) =       90.48000350


--------------------------------------------------------------------------------------------------------




--------------------------------------- Iteration      1(   2)  ---------------------------------------


    TRIAL :  cpu time    114.2312: real time    114.3090
    CORREC:  cpu time      0.0004: real time      0.0004
    --------------------------------------------
      LOOP:  cpu time    114.2448: real time    114.3380

 eigenvalue-minimisations  : 29184
 total energy-change (2. order) :-0.1950812E+03  (-0.1949918E+03)
 number of electron      48.0000000 magnetization 
 augmentation part       48.0000000 magnetization 

 Free energy of the ion-electron system (eV)
  ---------------------------------------------------
  alpha Z        PSCENC =        45.44424880
  Ewald energy   TEWEN  =     -1112.25898815
  -Hartree energ DENC   =      -975.75293079
  -exchange      EXHF   =         0.00000000
  -V(xc)+E(xc)   XCENC  =       154.01170394
  PAW double counting   =      1759.03600353    -1745.69672655
  entropy T*S    EENTRO =        -0.00000000
  eigenvalues    EBANDS =      -546.47800572
  atomic energy  EATOM  =      2317.09342707
  ---------------------------------------------------
  free energy    TOTEN  =      -104.60126788 eV

  energy without entropy =     -104.60126788  energy(sigma->0) =     -104.60126788


--------------------------------------------------------------------------------------------------------




--------------------------------------- Iteration      1(   3)  ---------------------------------------


    TRIAL :  cpu time     44.3874: real time     44.4120
    CORREC:  cpu time      0.0005: real time      0.0005
    --------------------------------------------
      LOOP:  cpu time     44.4044: real time     44.4422

 eigenvalue-minimisations  : 19456
 total energy-change (2. order) :-0.1442872E+01  (-0.1442872E+01)
 number of electron      48.0000000 magnetization 
 augmentation part       48.0000000 magnetization 

 Free energy of the ion-electron system (eV)
  ---------------------------------------------------
  alpha Z        PSCENC =        45.44424880
  Ewald energy   TEWEN  =     -1112.25898815
  -Hartree energ DENC   =      -975.75293079
  -exchange      EXHF   =         0.00000000
  -V(xc)+E(xc)   XCENC  =       154.01170394
  PAW double counting   =      1759.03600353    -1745.69672655
  entropy T*S    EENTRO =        -0.00000000
  eigenvalues    EBANDS =      -547.92087811
  atomic energy  EATOM  =      2317.09342707
  ---------------------------------------------------
  free energy    TOTEN  =      -106.04414027 eV

  energy without entropy =     -106.04414027  energy(sigma->0) =     -106.04414027


--------------------------------------------------------------------------------------------------------




--------------------------------------- Iteration      1(   4)  ---------------------------------------


    TRIAL :  cpu time    243.2903: real time    243.4156
    CORREC:  cpu time      0.0020: real time      0.0020
    --------------------------------------------
      LOOP:  cpu time    243.3213: real time    243.4467

 eigenvalue-minimisations  : 38912
 total energy-change (2. order) :-0.1992688E-02  (-0.1992688E-02)
 number of electron      48.0000000 magnetization 
 augmentation part       48.0000000 magnetization 

 Free energy of the ion-electron system (eV)
  ---------------------------------------------------
  alpha Z        PSCENC =        45.44424880
  Ewald energy   TEWEN  =     -1112.25898815
  -Hartree energ DENC   =      -975.75293079
  -exchange      EXHF   =         0.00000000
  -V(xc)+E(xc)   XCENC  =       154.01170394
  PAW double counting   =      1759.03600353    -1745.69672655
  entropy T*S    EENTRO =        -0.00000000
  eigenvalues    EBANDS =      -547.92287080
  atomic energy  EATOM  =      2317.09342707
  ---------------------------------------------------
  free energy    TOTEN  =      -106.04613296 eV

  energy without entropy =     -106.04613296  energy(sigma->0) =     -106.04613296


--------------------------------------------------------------------------------------------------------




--------------------------------------- Iteration      1(   5)  ---------------------------------------


    TRIAL :  cpu time     43.9762: real time     44.0006
    CORREC:  cpu time      0.0022: real time      0.0022
    CHARGE:  cpu time      0.0978: real time      0.0979
    --------------------------------------------
      LOOP:  cpu time     44.0891: real time     44.1307

 eigenvalue-minimisations  : 19456
 total energy-change (2. order) :-0.4662070E-08  (-0.4661661E-08)
 number of electron      47.9999999 magnetization 
 augmentation part        0.1943258 magnetization 

 Free energy of the ion-electron system (eV)
  ---------------------------------------------------
  alpha Z        PSCENC =        45.44424880
  Ewald energy   TEWEN  =     -1112.25898815
  -Hartree energ DENC   =      -975.75293079
  -exchange      EXHF   =         0.00000000
  -V(xc)+E(xc)   XCENC  =       154.01170394
  PAW double counting   =      1759.03600353    -1745.69672655
  entropy T*S    EENTRO =        -0.00000000
  eigenvalues    EBANDS =      -547.92287081
  atomic energy  EATOM  =      2317.09342707
  ---------------------------------------------------
  free energy    TOTEN  =      -106.04613296 eV

  energy without entropy =     -106.04613296  energy(sigma->0) =     -106.04613296


--------------------------------------------------------------------------------------------------------




--------------------------------------- Iteration      1(   6)  ---------------------------------------


    POTLOK:  cpu time      0.0179: real time      0.0179
    SETDIJ:  cpu time      0.0017: real time      0.0017
    TRIAL :  cpu time      5.0378: real time      5.0416
    CORREC:  cpu time      2.3054: real time      2.3067
    CHARGE:  cpu time      0.1185: real time      0.1185
    --------------------------------------------
      LOOP:  cpu time      7.4940: real time      7.5149

 eigenvalue-minimisations  :     0
 total energy-change (2. order) : 0.1960466E+02  (-0.1016435E+02)
 number of electron      47.9999999 magnetization 
 augmentation part        0.0629631 magnetization 

 Free energy of the ion-electron system (eV)
  ---------------------------------------------------
  alpha Z        PSCENC =        45.44424880
  Ewald energy   TEWEN  =     -1112.25898815
  -Hartree energ DENC   =     -1257.82398109
  -exchange      EXHF   =         0.00000000
  -V(xc)+E(xc)   XCENC  =       171.48909223
  PAW double counting   =     16211.19964267   -16201.01084115
  entropy T*S    EENTRO =        -0.00000000
  eigenvalues    EBANDS =      -260.57407307
  atomic energy  EATOM  =      2317.09342707
  ---------------------------------------------------
  free energy    TOTEN  =       -86.44147269 eV

  energy without entropy =      -86.44147269  energy(sigma->0) =      -86.44147269


--------------------------------------------------------------------------------------------------------




--------------------------------------- Iteration      1(   7)  ---------------------------------------


    POTLOK:  cpu time      0.0177: real time      0.0177
    SETDIJ:  cpu time      0.0017: real time      0.0017
    TRIAL :  cpu time      3.8683: real time      3.8705
    CORREC:  cpu time      2.2581: real time      2.2592
    CHARGE:  cpu time      0.0835: real time      0.0836
    --------------------------------------------
      LOOP:  cpu time      6.2590: real time      6.2626

 eigenvalue-minimisations  :     0
 total energy-change (2. order) :-0.1021237E+02  (-0.8551569E+00)
 number of electron      47.9999999 magnetization 
 augmentation part        0.0715410 magnetization 

 Free energy of the ion-electron system (eV)
  ---------------------------------------------------
  alpha Z        PSCENC =        45.44424880
  Ewald energy   TEWEN  =     -1112.25898815
  -Hartree energ DENC   =     -1132.53751688
  -exchange      EXHF   =         0.00000000
  -V(xc)+E(xc)   XCENC  =       164.05659690
  PAW double counting   =     30803.91313165   -30791.89410425
  entropy T*S    EENTRO =        -0.00000000
  eigenvalues    EBANDS =      -390.47063557
  atomic energy  EATOM  =      2317.09342707
  ---------------------------------------------------
  free energy    TOTEN  =       -96.65384044 eV

  energy without entropy =      -96.65384044  energy(sigma->0) =      -96.65384044


--------------------------------------------------------------------------------------------------------




--------------------------------------- Iteration      1(   8)  ---------------------------------------


    POTLOK:  cpu time      0.0149: real time      0.0149
    SETDIJ:  cpu time      0.0017: real time      0.0017
    TRIAL :  cpu time      3.8703: real time      3.8734
    CORREC:  cpu time      2.2558: real time      2.2574
    CHARGE:  cpu time      0.0840: real time      0.0840
    --------------------------------------------
      LOOP:  cpu time      6.2401: real time      6.2625

 eigenvalue-minimisations  :     0
 total energy-change (2. order) :-0.8524361E+00  (-0.6234208E-01)
 number of electron      47.9999999 magnetization 
 augmentation part        0.0682991 magnetization 

 Free energy of the ion-electron system (eV)
  ---------------------------------------------------
  alpha Z        PSCENC =        45.44424880
  Ewald energy   TEWEN  =     -1112.25898815
  -Hartree energ DENC   =     -1112.74010723
  -exchange      EXHF   =         0.00000000
  -V(xc)+E(xc)   XCENC  =       162.89006836
  PAW double counting   =     22976.27545513   -22964.35619694
  entropy T*S    EENTRO =        -0.00000000
  eigenvalues    EBANDS =      -409.85418360
  atomic energy  EATOM  =      2317.09342707
  ---------------------------------------------------
  free energy    TOTEN  =       -97.50627656 eV

  energy without entropy =      -97.50627656  energy(sigma->0) =      -97.50627656


--------------------------------------------------------------------------------------------------------




--------------------------------------- Iteration      1(   9)  ---------------------------------------


    POTLOK:  cpu time      0.0141: real time      0.0141
    SETDIJ:  cpu time      0.0017: real time      0.0017
    TRIAL :  cpu time      3.9008: real time      3.9030
    CORREC:  cpu time      2.2650: real time      2.2661
    CHARGE:  cpu time      0.0833: real time      0.0833
    --------------------------------------------
      LOOP:  cpu time      6.2775: real time      6.2980

 eigenvalue-minimisations  :     0
 total energy-change (2. order) :-0.6224217E-01  (-0.7484808E-02)
 number of electron      47.9999999 magnetization 
 augmentation part        0.0675347 magnetization 

 Free energy of the ion-electron system (eV)
  ---------------------------------------------------
  alpha Z        PSCENC =        45.44424880
  Ewald energy   TEWEN  =     -1112.25898815
  -Hartree energ DENC   =     -1109.03143046
  -exchange      EXHF   =         0.00000000
  -V(xc)+E(xc)   XCENC  =       162.65585631
  PAW double counting   =     22202.41934952   -22190.47744757
  entropy T*S    EENTRO =        -0.00000000
  eigenvalues    EBANDS =      -413.41353424
  atomic energy  EATOM  =      2317.09342707
  ---------------------------------------------------
  free energy    TOTEN  =       -97.56851873 eV

  energy without entropy =      -97.56851873  energy(sigma->0) =      -97.56851873


--------------------------------------------------------------------------------------------------------




--------------------------------------- Iteration      1(  10)  ---------------------------------------


    POTLOK:  cpu time      0.0141: real time      0.0141
    SETDIJ:  cpu time      0.0017: real time      0.0017
    TRIAL :  cpu time      3.8641: real time      3.8663
    CORREC:  cpu time      2.2639: real time      2.2650
    CHARGE:  cpu time      0.0833: real time      0.0833
    --------------------------------------------
      LOOP:  cpu time      6.2566: real time      6.2600

 eigenvalue-minimisations  :     0
 total energy-change (2. order) :-0.7468915E-02  (-0.1185591E-02)
 number of electron      47.9999999 magnetization 
 augmentation part        0.0665794 magnetization 

 Free energy of the ion-electron system (eV)
  ---------------------------------------------------
  alpha Z        PSCENC =        45.44424880
  Ewald energy   TEWEN  =     -1112.25898815
  -Hartree energ DENC   =     -1109.63776295
  -exchange      EXHF   =         0.00000000
  -V(xc)+E(xc)   XCENC  =       162.67060858
  PAW double counting   =     22292.54823888   -22280.61075158
  entropy T*S    EENTRO =        -0.00000000
  eigenvalues    EBANDS =      -412.82500829
  atomic energy  EATOM  =      2317.09342707
  ---------------------------------------------------
  free energy    TOTEN  =       -97.57598764 eV

  energy without entropy =      -97.57598764  energy(sigma->0) =      -97.57598764


--------------------------------------------------------------------------------------------------------




--------------------------------------- Iteration      1(  11)  ---------------------------------------


    POTLOK:  cpu time      0.0140: real time      0.0140
    SETDIJ:  cpu time      0.0017: real time      0.0017
    TRIAL :  cpu time      3.8684: real time      3.8706
    CORREC:  cpu time      2.2664: real time      2.2674
    CHARGE:  cpu time      0.0841: real time      0.0846
    --------------------------------------------
      LOOP:  cpu time      6.2517: real time      6.2700

 eigenvalue-minimisations  :     0
 total energy-change (2. order) :-0.1183620E-02  (-0.1240969E-03)
 number of electron      47.9999999 magnetization 
 augmentation part        0.0671051 magnetization 

 Free energy of the ion-electron system (eV)
  ---------------------------------------------------
  alpha Z        PSCENC =        45.44424880
  Ewald energy   TEWEN  =     -1112.25898815
  -Hartree energ DENC   =     -1109.44773371
  -exchange      EXHF   =         0.00000000
  -V(xc)+E(xc)   XCENC  =       162.65410200
  PAW double counting   =     22372.72039894   -22360.77586288
  entropy T*S    EENTRO =        -0.00000000
  eigenvalues    EBANDS =      -413.00676334
  atomic energy  EATOM  =      2317.09342707
  ---------------------------------------------------
  free energy    TOTEN  =       -97.57717126 eV

  energy without entropy =      -97.57717126  energy(sigma->0) =      -97.57717126


--------------------------------------------------------------------------------------------------------




--------------------------------------- Iteration      1(  12)  ---------------------------------------


    POTLOK:  cpu time      0.0137: real time      0.0137
    SETDIJ:  cpu time      0.0017: real time      0.0017
    TRIAL :  cpu time      3.8703: real time      3.8725
    CORREC:  cpu time      2.2690: real time      2.2707
    CHARGE:  cpu time      0.0831: real time      0.0831
    --------------------------------------------
      LOOP:  cpu time      6.2515: real time      6.2725

 eigenvalue-minimisations  :     0
 total energy-change (2. order) :-0.1263316E-03  (-0.7815231E-05)
 number of electron      47.9999999 magnetization 
 augmentation part        0.0671083 magnetization 

 Free energy of the ion-electron system (eV)
  ---------------------------------------------------
  alpha Z        PSCENC =        45.44424880
  Ewald energy   TEWEN  =     -1112.25898815
  -Hartree energ DENC   =     -1109.47673224
  -exchange      EXHF   =         0.00000000
  -V(xc)+E(xc)   XCENC  =       162.65431997
  PAW double counting   =     22333.15911960   -22321.21746684
  entropy T*S    EENTRO =        -0.00000000
  eigenvalues    EBANDS =      -412.97522579
  atomic energy  EATOM  =      2317.09342707
  ---------------------------------------------------
  free energy    TOTEN  =       -97.57729760 eV

  energy without entropy =      -97.57729760  energy(sigma->0) =      -97.57729760


--------------------------------------------------------------------------------------------------------




--------------------------------------- Iteration      1(  13)  ---------------------------------------


    POTLOK:  cpu time      0.0145: real time      0.0145
    SETDIJ:  cpu time      0.0017: real time      0.0017
    TRIAL :  cpu time      3.8638: real time      3.8659
    CORREC:  cpu time      2.2643: real time      2.2655
    CHARGE:  cpu time      0.0975: real time      0.0975
    --------------------------------------------
      LOOP:  cpu time      6.2558: real time      6.2743

 eigenvalue-minimisations  :     0
 total energy-change (2. order) :-0.7998096E-05  (-0.1242112E-05)
 number of electron      47.9999999 magnetization 
 augmentation part        0.0671067 magnetization 

 Free energy of the ion-electron system (eV)
  ---------------------------------------------------
  alpha Z        PSCENC =        45.44424880
  Ewald energy   TEWEN  =     -1112.25898815
  -Hartree energ DENC   =     -1109.45100327
  -exchange      EXHF   =         0.00000000
  -V(xc)+E(xc)   XCENC  =       162.65272992
  PAW double counting   =     22337.01614352   -22325.07412285
  entropy T*S    EENTRO =        -0.00000000
  eigenvalues    EBANDS =      -412.99974064
  atomic energy  EATOM  =      2317.09342707
  ---------------------------------------------------
  free energy    TOTEN  =       -97.57730559 eV

  energy without entropy =      -97.57730559  energy(sigma->0) =      -97.57730559


--------------------------------------------------------------------------------------------------------




--------------------------------------- Iteration      1(  14)  ---------------------------------------


    POTLOK:  cpu time      0.0181: real time      0.0181
    SETDIJ:  cpu time      0.0019: real time      0.0019
    TRIAL :  cpu time      3.9702: real time      3.9730
    CORREC:  cpu time      2.2523: real time      2.2532
    CHARGE:  cpu time      0.0834: real time      0.0834
    --------------------------------------------
      LOOP:  cpu time      6.3387: real time      6.3595

 eigenvalue-minimisations  :     0
 total energy-change (2. order) :-0.1169807E-05  (-0.1727520E-06)
 number of electron      47.9999999 magnetization 
 augmentation part        0.0671068 magnetization 

 Free energy of the ion-electron system (eV)
  ---------------------------------------------------
  alpha Z        PSCENC =        45.44424880
  Ewald energy   TEWEN  =     -1112.25898815
  -Hartree energ DENC   =     -1109.45327056
  -exchange      EXHF   =         0.00000000
  -V(xc)+E(xc)   XCENC  =       162.65302449
  PAW double counting   =     22340.87379118   -22328.93176711
  entropy T*S    EENTRO =        -0.00000000
  eigenvalues    EBANDS =      -412.99777248
  atomic energy  EATOM  =      2317.09342707
  ---------------------------------------------------
  free energy    TOTEN  =       -97.57730676 eV

  energy without entropy =      -97.57730676  energy(sigma->0) =      -97.57730676


--------------------------------------------------------------------------------------------------------




--------------------------------------- Iteration      1(  15)  ---------------------------------------


    POTLOK:  cpu time      0.0145: real time      0.0145
    SETDIJ:  cpu time      0.0017: real time      0.0017
    TRIAL :  cpu time      3.8661: real time      3.8688
    CORREC:  cpu time      2.2680: real time      2.2694
    CHARGE:  cpu time      0.0833: real time      0.0833
    --------------------------------------------
      LOOP:  cpu time      6.2645: real time      6.2688

 eigenvalue-minimisations  :     0
 total energy-change (2. order) :-0.1806184E-06  (-0.2013933E-07)
 number of electron      47.9999999 magnetization 
 augmentation part        0.0671104 magnetization 

 Free energy of the ion-electron system (eV)
  ---------------------------------------------------
  alpha Z        PSCENC =        45.44424880
  Ewald energy   TEWEN  =     -1112.25898815
  -Hartree energ DENC   =     -1109.45089797
  -exchange      EXHF   =         0.00000000
  -V(xc)+E(xc)   XCENC  =       162.65288513
  PAW double counting   =     22340.68397283   -22328.74190703
  entropy T*S    EENTRO =        -0.00000000
  eigenvalues    EBANDS =      -413.00004762
  atomic energy  EATOM  =      2317.09342707
  ---------------------------------------------------
  free energy    TOTEN  =       -97.57730694 eV

  energy without entropy =      -97.57730694  energy(sigma->0) =      -97.57730694


--------------------------------------------------------------------------------------------------------




--------------------------------------- Iteration      1(  16)  ---------------------------------------


    POTLOK:  cpu time      0.0143: real time      0.0143
    SETDIJ:  cpu time      0.0017: real time      0.0017
    TRIAL :  cpu time      3.8740: real time      3.8759
    CORREC:  cpu time      2.2523: real time      2.2533
    EDDIAG:  cpu time      2.2325: real time      2.2342
    CHARGE:  cpu time      0.0825: real time      0.0825
    --------------------------------------------
      LOOP:  cpu time      8.4710: real time      8.4918

 eigenvalue-minimisations  :     0
 total energy-change (2. order) :-0.1666194E-07  (-0.5666586E-08)
 number of electron      47.9999999 magnetization 
 augmentation part        0.0671121 magnetization 

 Free energy of the ion-electron system (eV)
  ---------------------------------------------------
  alpha Z        PSCENC =        45.44424880
  Ewald energy   TEWEN  =     -1112.25898815
  -Hartree energ DENC   =     -1109.45172064
  -exchange      EXHF   =         0.00000000
  -V(xc)+E(xc)   XCENC  =       162.65291790
  PAW double counting   =     22340.15340904   -22328.21136522
  entropy T*S    EENTRO =        -0.00000000
  eigenvalues    EBANDS =      -412.99923576
  atomic energy  EATOM  =      2317.09342707
  ---------------------------------------------------
  free energy    TOTEN  =       -97.57730696 eV

  energy without entropy =      -97.57730696  energy(sigma->0) =      -97.57730696


--------------------------------------------------------------------------------------------------------


  average scaling for gradient   1.3817


 average (electrostatic) potential at core
  the test charge radii are     0.5770  0.5955  0.5902  0.4325
  (the norm of the test charge is              1.0000)
       1 -84.0692       2 -84.0692       3-113.6793       4-113.6793       5 -98.6923
       6 -98.6923       7 -98.6923       8 -98.6923       9 -41.4388      10 -41.4388
      11 -41.4388      12 -41.4387      13 -41.5648      14 -41.5648      15 -41.5648
      16 -41.5648



 E-fermi :  -0.6656     XC(G=0):  -7.9852     alpha+bet : -6.6267

 Fermi energy:        -0.6655706778

 k-point     1 :       0.0000    0.0000    0.0000
  band No.  band energies     occupation 
      1     -21.1280      2.00000
      2     -20.9266      2.00000
      3     -17.6202      2.00000
      4     -17.5772      2.00000
      5     -16.5768      2.00000
      6     -16.5768      2.00000
      7     -10.5552      2.00000
      8      -9.8970      2.00000
      9      -9.0724      2.00000
     10      -8.1930      2.00000
[...]
     58      19.3828      0.00000
     59      19.7637      0.00000
     60      20.3388      0.00000
     61      20.5807      0.00000
     62      21.0483      0.00000
     63      21.4520      0.00000
     64      21.8648      0.00000
     65      22.2213      0.00000
     66      23.1325      0.00000
     67      23.3409      0.00000
     68      23.4234      0.00000
     69      24.0162      0.00000
     70      24.1987      0.00000
     71      24.5033      0.00000
     72      24.9999      0.00000
     73      25.5503      0.00000
     74      25.5826      0.00000
     75      26.0147      0.00000
     76      26.4077      0.00000
     77      26.6936      0.00000
     78      26.9783      0.00000
     79      27.5264      0.00000
     80      27.7897      0.00000
     81      28.2198      0.00000
     82      28.4398      0.00000
     83      28.8000      0.00000
     84      29.2620      0.00000
     85      29.4959      0.00000
     86      29.9980      0.00000
     87      30.2248      0.00000
     88      30.6114      0.00000
     89      31.0473      0.00000
     90      31.1546      0.00000
     91      31.4427      0.00000
     92      31.5641      0.00000
     93      32.0090      0.00000
     94      32.5662      0.00000
     95      32.8752      0.00000
     96      33.1211      0.00000
     97      33.4659      0.00000
     98      33.6785      0.00000
     99      33.9938      0.00000
    100      34.1145      0.00000
    101      34.4186      0.00000
    102      34.6605      0.00000
    103      34.9397      0.00000
    104      35.5798      0.00000
    105      35.8099      0.00000
    106      36.2452      0.00000
    107      36.3938      0.00000
    108      36.7233      0.00000
    109      37.4227      0.00000
    110      37.7168      0.00000
    111      37.8332      0.00000
    112      38.2931      0.00000
    113      38.8537      0.00000
    114      39.0383      0.00000
    115      39.5529      0.00000
    116      39.7402      0.00000
    117      40.0556      0.00000
    118      40.5357      0.00000
    119      40.6822      0.00000
    120      41.0646      0.00000
    121      41.2536      0.00000
    122      41.6743      0.00000
    123      41.9602      0.00000
    124      42.5360      0.00000
    125      42.5922      0.00000
    126      43.0478      0.00000
    127      43.3928      0.00000
    128      43.4838      0.00000

 k-point    75 :       0.4000    0.4000    0.5000
  band No.  band energies     occupation 
      1     -20.9294      2.00000
      2     -20.9157      2.00000
      3     -17.9024      2.00000
      4     -17.8619      2.00000
      5     -16.5630      2.00000
      6     -16.5533      2.00000
      7      -9.9665      2.00000
      8      -9.9365      2.00000
      9      -8.5137      2.00000
     10      -8.5100      2.00000
     11      -7.6775      2.00000
     12      -7.6555      2.00000
     13      -6.7389      2.00000
     14      -6.7143      2.00000
     15      -5.9829      2.00000
     16      -5.8623      2.00000
     17      -5.2259      2.00000
     18      -5.2047      2.00000
     19      -1.7241      2.00000
     20      -1.6913      2.00000
     21      -1.1969      2.00000
     22      -1.1734      2.00000
     23      -0.9890      2.00000
     24      -0.9258      2.00000
     25       5.2968      0.00000
     26       5.3208      0.00000
     27       6.9734      0.00000
     28       7.3620      0.00000
     29       7.6708      0.00000
     30       7.8458      0.00000
     31       8.0957      0.00000
     32       8.2645      0.00000
     33       8.6515      0.00000
     34       8.8383      0.00000
     35      10.3651      0.00000
     36      10.7915      0.00000
     37      11.0327      0.00000
     38      11.2871      0.00000
     39      11.8045      0.00000
     40      12.1044      0.00000
     41      12.1531      0.00000
     42      12.4713      0.00000
     43      13.0721      0.00000
     44      13.3656      0.00000
     45      13.3998      0.00000
     46      13.6653      0.00000
     47      15.3809      0.00000
     48      15.4498      0.00000
     49      16.8829      0.00000
     50      16.9693      0.00000
     51      17.3007      0.00000
     52      17.6179      0.00000
     53      17.9743      0.00000
     54      18.1277      0.00000
     55      18.2349      0.00000
     56      18.6680      0.00000
     57      19.1774      0.00000
     58      19.5398      0.00000
     59      19.8054      0.00000
     60      20.3376      0.00000
     61      21.2621      0.00000
     62      21.5834      0.00000
     63      22.3698      0.00000
     64      22.5341      0.00000
     65      22.5666      0.00000
     66      23.3979      0.00000
     67      23.7732      0.00000
     68      23.7817      0.00000
     69      24.2386      0.00000
     70      24.3314      0.00000
     71      24.7910      0.00000
     72      25.2993      0.00000
     73      25.3978      0.00000
     74      25.4841      0.00000
     75      25.5620      0.00000
     76      26.0199      0.00000
     77      26.5847      0.00000
     78      26.7082      0.00000
     79      26.7321      0.00000
     80      27.1861      0.00000
     81      27.9505      0.00000
     82      28.0052      0.00000
     83      28.5309      0.00000
     84      29.1076      0.00000
     85      29.3159      0.00000
     86      29.3989      0.00000
     87      30.5502      0.00000
     88      30.5520      0.00000
     89      30.9158      0.00000
     90      30.9244      0.00000
     91      31.6185      0.00000
     92      31.8463      0.00000
     93      32.1974      0.00000
     94      32.5465      0.00000
     95      32.8968      0.00000
     96      33.0021      0.00000
     97      33.2493      0.00000
     98      33.2604      0.00000
     99      33.7176      0.00000
    100      34.1432      0.00000
    101      34.6136      0.00000
    102      34.6887      0.00000
    103      35.0265      0.00000
    104      35.4178      0.00000
    105      35.7417      0.00000
    106      36.6451      0.00000
    107      36.9566      0.00000
    108      37.2564      0.00000
    109      37.3530      0.00000
    110      38.0537      0.00000
    111      38.0836      0.00000
    112      39.1465      0.00000
    113      39.2543      0.00000
    114      39.6408      0.00000
    115      39.8017      0.00000
    116      40.0193      0.00000
    117      40.1188      0.00000
    118      40.2211      0.00000
    119      40.5093      0.00000
    120      40.5609      0.00000
    121      40.9887      0.00000
    122      41.5649      0.00000
    123      41.7542      0.00000
    124      41.7727      0.00000
    125      42.0892      0.00000
    126      42.7625      0.00000
    127      42.9578      0.00000
    128      43.0665      0.00000

 k-point    76 :      -0.4000    0.4000    0.5000
  band No.  band energies     occupation 
      1     -20.9294      2.00000
      2     -20.9157      2.00000
      3     -17.9024      2.00000
      4     -17.8619      2.00000
      5     -16.5630      2.00000
      6     -16.5533      2.00000
      7      -9.9665      2.00000
      8      -9.9365      2.00000
      9      -8.5137      2.00000
     10      -8.5100      2.00000
     11      -7.6775      2.00000
     12      -7.6555      2.00000
     13      -6.7389      2.00000
     14      -6.7143      2.00000
     15      -5.9829      2.00000
     16      -5.8623      2.00000
     17      -5.2259      2.00000
     18      -5.2047      2.00000
     19      -1.7241      2.00000
     20      -1.6913      2.00000
     21      -1.1969      2.00000
     22      -1.1734      2.00000
     23      -0.9890      2.00000
     24      -0.9258      2.00000
     25       5.2968      0.00000
     26       5.3208      0.00000
     27       6.9734      0.00000
     28       7.3620      0.00000
     29       7.6708      0.00000
     30       7.8458      0.00000
     31       8.0957      0.00000
     32       8.2645      0.00000
     33       8.6515      0.00000
     34       8.8383      0.00000
     35      10.3651      0.00000
     36      10.7915      0.00000
     37      11.0327      0.00000
     38      11.2871      0.00000
     39      11.8045      0.00000
     40      12.1044      0.00000
     41      12.1531      0.00000
     42      12.4713      0.00000
     43      13.0721      0.00000
     44      13.3656      0.00000
     45      13.3998      0.00000
     46      13.6653      0.00000
     47      15.3809      0.00000
     48      15.4498      0.00000
     49      16.8829      0.00000
     50      16.9693      0.00000
     51      17.3007      0.00000
     52      17.6179      0.00000
     53      17.9743      0.00000
     54      18.1277      0.00000
     55      18.2349      0.00000
     56      18.6680      0.00000
     57      19.1774      0.00000
     58      19.5398      0.00000
     59      19.8054      0.00000
     60      20.3376      0.00000
     61      21.2621      0.00000
     62      21.5834      0.00000
     63      22.3698      0.00000
     64      22.5341      0.00000
     65      22.5666      0.00000
     66      23.3979      0.00000
     67      23.7732      0.00000
     68      23.7817      0.00000
     69      24.2386      0.00000
     70      24.3314      0.00000
     71      24.7910      0.00000
     72      25.2993      0.00000
     73      25.3978      0.00000
     74      25.4841      0.00000
     75      25.5620      0.00000
     76      26.0199      0.00000
     77      26.5847      0.00000
     78      26.7082      0.00000
     79      26.7321      0.00000
     80      27.1861      0.00000
     81      27.9505      0.00000
     82      28.0052      0.00000
     83      28.5309      0.00000
     84      29.1075      0.00000
     85      29.3159      0.00000
     86      29.3989      0.00000
     87      30.5502      0.00000
     88      30.5520      0.00000
     89      30.9158      0.00000
     90      30.9244      0.00000
     91      31.6185      0.00000
     92      31.8463      0.00000
     93      32.1974      0.00000
     94      32.5465      0.00000
     95      32.8968      0.00000
     96      33.0021      0.00000
     97      33.2493      0.00000
     98      33.2604      0.00000
     99      33.7176      0.00000
    100      34.1432      0.00000
    101      34.6136      0.00000
    102      34.6887      0.00000
    103      35.0265      0.00000
    104      35.4178      0.00000
    105      35.7417      0.00000
    106      36.6451      0.00000
    107      36.9566      0.00000
    108      37.2564      0.00000
    109      37.3530      0.00000
    110      38.0537      0.00000
    111      38.0836      0.00000
    112      39.1465      0.00000
    113      39.2543      0.00000
    114      39.6408      0.00000
    115      39.8017      0.00000
    116      40.0193      0.00000
    117      40.1188      0.00000
    118      40.2211      0.00000
    119      40.5093      0.00000
    120      40.5609      0.00000
    121      40.9887      0.00000
    122      41.5649      0.00000
    123      41.7541      0.00000
    124      41.7727      0.00000
    125      42.0892      0.00000
    126      42.7658      0.00000
    127      42.9574      0.00000
    128      43.0722      0.00000


--------------------------------------------------------------------------------------------------------


 soft charge-density along one line, spin component           1
         0         1         2         3         4         5         6         7         8         9
 total charge-density along one line

 pseudopotential strength for first ion, spin component:           1
 12.633  21.258  -0.000   0.000  -0.000  -0.000   0.000  -0.000
 21.258  35.769  -0.000   0.000  -0.000  -0.000   0.000  -0.000
 -0.000  -0.000  -3.152   0.000   0.001  -5.649   0.000   0.001
  0.000   0.000   0.000  -3.152   0.000   0.000  -5.649   0.000
 -0.000  -0.000   0.001   0.000  -3.152   0.001   0.000  -5.649
 -0.000  -0.000  -5.649   0.000   0.001 -10.099   0.000   0.001
  0.000   0.000   0.000  -5.649   0.000   0.000 -10.100   0.000
 -0.000  -0.000   0.001   0.000  -5.649   0.001   0.000 -10.099
 total augmentation occupancy for first ion, spin component:           1
  8.610  -3.221  -0.000   0.625  -0.000   0.000  -0.327   0.000
 -3.221   1.285   0.000  -0.342   0.000  -0.000   0.181  -0.000
 -0.000   0.000   5.318  -0.000   2.284  -1.738   0.000  -0.932
  0.625  -0.342  -0.000   8.731  -0.000   0.000  -3.217   0.000
 -0.000   0.000   2.284  -0.000   5.318  -0.932   0.000  -1.738
  0.000  -0.000  -1.738   0.000  -0.932   0.586  -0.000   0.370
 -0.327   0.181   0.000  -3.217   0.000  -0.000   1.221  -0.000
  0.000  -0.000  -0.932   0.000  -1.738   0.370  -0.000   0.586


------------------------ aborting loop because EDIFF is reached ----------------------------------------


    FORLOC:  cpu time      0.0044: real time      0.0044
    FORNL :  cpu time      0.9987: real time      0.9994
    FORCOR:  cpu time      0.0156: real time      0.0156
    OFIELD:  cpu time      0.0003: real time      0.0003

 ---------------------------------------------------------------------------------------------

         DFTD3 V3.0 Rev 1        
 IVDW         = 11
 DF pbe       
 parameters
 VDW_S6       =    1.0000
 VDW_S8       =    0.7220
 VDW_SR       =    1.2170
 rs18     =    1.0000
 alpha6   =   14.0000
 alpha8   =   16.0000
 k1-k3    =   16.0000    1.3333   -4.0000
 VDW_RADIUS   =   50.2022 A
 VDW_CNRADIUS =   21.1671 A
 Edisp (eV)   -0.84749

 E6    (eV) :    -0.5394
 E8    (eV) :    -0.3080
 % E8        : 36.35
    FORVDW:  cpu time      0.2242: real time      0.2249

 VOLUME and BASIS-vectors are now :
 -----------------------------------------------------------------------------
  energy-cutoff  :     1000.00
  volume of cell :      145.06
      direct lattice vectors                 reciprocal lattice vectors
     5.565000000  0.000000000  0.000000000     0.179694519  0.000000000  0.000000000
     0.000000000  5.565000000  0.000000000     0.000000000  0.179694519  0.000000000
     0.000000000  0.000000000  4.684000000     0.000000000  0.000000000  0.213492741

  length of vectors
     5.565000000  5.565000000  4.684000000     0.179694519  0.179694519  0.213492741


 FORCES acting on ions:
    Electron-Ion                     Ewald-Force                    Non-Local-Force
 -----------------------------------------------------------------------------------------------
   -.256E-03 0.432E-05 0.339E+02   0.252E-03 0.254E-06 -.337E+02   -.306E-04 -.358E-04 -.331E+00
   -.143E-03 0.167E-03 -.339E+02   0.164E-03 -.164E-03 0.337E+02   -.264E-05 -.104E-04 0.331E+00
   0.254E-04 0.328E-03 -.163E+03   -.117E-03 -.397E-03 0.208E+03   0.107E-03 0.117E-03 -.453E+02
   -.142E-03 -.277E-03 0.163E+03   0.126E-03 0.294E-03 -.208E+03   0.300E-04 0.113E-04 0.453E+02
   -.798E+02 -.798E+02 0.563E+02   0.830E+02 0.830E+02 -.581E+02   -.334E+01 -.334E+01 0.176E+01
   0.798E+02 0.798E+02 0.563E+02   -.830E+02 -.830E+02 -.581E+02   0.334E+01 0.334E+01 0.176E+01
   -.798E+02 0.798E+02 -.563E+02   0.830E+02 -.830E+02 0.581E+02   -.334E+01 0.334E+01 -.176E+01
   0.798E+02 -.798E+02 -.563E+02   -.830E+02 0.830E+02 0.581E+02   0.334E+01 -.334E+01 -.176E+01
   -.321E+02 -.321E+02 -.226E+02   0.367E+02 0.367E+02 0.261E+02   -.458E+01 -.458E+01 -.354E+01
   0.321E+02 0.321E+02 -.226E+02   -.367E+02 -.367E+02 0.261E+02   0.458E+01 0.458E+01 -.354E+01
   -.321E+02 0.321E+02 0.226E+02   0.367E+02 -.367E+02 -.261E+02   -.458E+01 0.458E+01 0.354E+01
   0.321E+02 -.321E+02 0.226E+02   -.367E+02 0.367E+02 -.261E+02   0.458E+01 -.458E+01 0.354E+01
   -.102E+02 -.102E+02 0.561E+02   0.101E+02 0.101E+02 -.635E+02   0.357E-02 0.348E-02 0.744E+01
   0.102E+02 0.102E+02 0.561E+02   -.101E+02 -.101E+02 -.635E+02   -.354E-02 -.344E-02 0.744E+01
   -.102E+02 0.102E+02 -.561E+02   0.101E+02 -.101E+02 0.635E+02   0.356E-02 -.346E-02 -.744E+01
   0.102E+02 -.102E+02 -.561E+02   -.101E+02 0.101E+02 0.635E+02   -.355E-02 0.346E-02 -.744E+01
 -----------------------------------------------------------------------------------------------
   0.454E-04 0.605E-04 -.795E-06   -.604E-13 0.320E-13 0.121E-12   -.451E-04 0.619E-04 0.398E-06


 POSITION                                       TOTAL-FORCE (eV/Angst)
 -----------------------------------------------------------------------------------
      0.00000      2.37694      1.52726        -0.000034     -0.000036      0.004704
      2.78250      5.15944      3.15674         0.000018     -0.000012     -0.004718
      5.56500      2.37694      2.80034         0.000015      0.000040     -0.039207
      2.78250      5.15944      1.88366         0.000014      0.000021      0.039197
      0.81701      3.19394      0.82848        -0.047478     -0.047472      0.025056
      4.74799      1.55995      0.82848         0.047365      0.047357      0.025002
      3.59951      4.34244      3.85552        -0.047468      0.047462     -0.025058
      1.96549      0.41144      3.85552         0.047393     -0.047387     -0.025011
      1.44738      3.82433      1.32525         0.000095      0.000076     -0.012421
      4.11762      0.92955      1.32525         0.000020      0.000009     -0.012462
      4.22988      3.71205      3.35875         0.000058     -0.000069      0.012436
      1.33512      1.04183      3.35875        -0.000024      0.000005      0.012456
      0.81112      3.18806      4.49318        -0.000441     -0.000436      0.016970
      4.75388      1.56582      4.49317         0.000457      0.000454      0.017061
      3.59362      4.34832      0.19083        -0.000441      0.000436     -0.016987
      1.97138      0.40556      0.19082         0.000452     -0.000449     -0.017017
 -----------------------------------------------------------------------------------
    total drift:                                0.000000      0.000122     -0.000000


--------------------------------------------------------------------------------------------------------



  FREE ENERGIE OF THE ION-ELECTRON SYSTEM (eV)
  ---------------------------------------------------
  free  energy   TOTEN  =       -98.42479778 eV

  energy  without entropy=      -98.42479778  energy(sigma->0) =      -98.42479778



--------------------------------------------------------------------------------------------------------


    POTLOK:  cpu time      0.0671: real time      0.0675


--------------------------------------------------------------------------------------------------------


 stress matrix after NEB project (eV)
     -0.94009     -0.00000     -0.00000
     -0.00000     -0.94009     -0.00000
     -0.00000     -0.00000     -0.90042
  FORCES: max atom, RMS     0.071663    0.039839
  FORCE total and by dimension    0.159354    0.047478
  Stress total and by dimension    1.605706    0.940090
     LOOP+:  cpu time    562.6796: real time    563.1863
    4ORBIT:  cpu time      0.0000: real time      0.0000

 total amount of memory used by VASP MPI-rank0   160409. kBytes
=======================================================================

   base      :      30000. kBytes
   nonl-proj :     103448. kBytes
   fftplans  :       2999. kBytes
   grid      :       4327. kBytes
   one-center:         24. kBytes
   wavefun   :      19611. kBytes

  
  
 General timing and accounting informations for this job:
 ========================================================
  
                  Total CPU time used (sec):      589.478
                            User time (sec):      587.707
                          System time (sec):        1.771
                         Elapsed time (sec):      593.868
  
                   Maximum memory used (kb):      401040.
                   Average memory used (kb):          N/A
  
                          Minor page faults:        69325
                          Major page faults:         1188
                 Voluntary context switches:         6110
