 vasp.6.4.1 05Apr23 (build Jun  6 2023 14:36:51) complex                         
 executed on        HPECrayEX_GCC date 2024.08.20  15:07:31
 running  256 mpi-ranks, with    1 threads/rank, on    2 nodes
 distrk:  each k-point on  256 cores,    1 groups
 distr:  one band on NCORE=   2 cores,  128 groups


--------------------------------------------------------------------------------------------------------


 INCAR:
   ALGO = Conjugate
   NCORE = 2
   PREC = Accurate
   EDIFF = 1E-7
   ENCUT = 1000
   ISMEAR = 0
   SIGMA = 0.01
   ISIF = 0
   SYMPREC = 1E-7
   GGA = B5
   ALDAX = 1.0
   AGGAX = 1.0
   AGGAC = 1.0
   ALDAC = 0.0
   IVDW = 11
   VDW_S8 = 1.682
   VDW_SR = 1.094
   LWAVE = .FALSE.
   LCHARGE = .FALSE.
   LWAVE = .FALSE.
   LCHARGE = .FALSE.

 POTCAR:    PAW_PBE C_h 06Feb2004                 
 POTCAR:    PAW_PBE O_h 06Feb2004                 
 POTCAR:    PAW_PBE N_h 06Feb2004                 
 POTCAR:    PAW_PBE H_h 06Feb2004                 
 POTCAR:    PAW_PBE C_h 06Feb2004                 
   VRHFIN =C: s2p2                                                                                  
   LEXCH  = PE                                                                                      
   EATOM  =   147.1560 eV,   10.8157 Ry                                                             
                                                                                                    
   TITEL  = PAW_PBE C_h 06Feb2004                                                                   
   LULTRA =        F    use ultrasoft PP ?                                                          
   IUNSCR =        1    unscreen: 0-lin 1-nonlin 2-no                                               
   RPACOR =    0.800    partial core radius                                                         
   POMASS =   12.011; ZVAL   =    4.000    mass and valenz                                          
   RCORE  =    1.100    outmost cutoff radius                                                       
   RWIGS  =    1.630; RWIGS  =    0.863    wigner-seitz radius (au A)                               
   ENMAX  =  700.000; ENMIN  =  500.000 eV                                                          
   ICORE  =        2    local potential                                                             
   LCOR   =        T    correct aug charges                                                         
   LPAW   =        T    paw PP                                                                      
   EAUG   =  946.768                                                                                
   DEXC   =    0.000                                                                                
   RMAX   =    1.128    core radius for proj-oper                                                   
   RAUG   =    1.300    factor for augmentation sphere                                              
   RDEP   =    1.162    radius for radial grids                                                     
   RDEPT  =    1.088    core radius for aug-charge                                                  
                                                                                                    
   Atomic configuration                                                                             
    4 entries                                                                                       
     n  l   j            E        occ.                                                              
     1  0  0.50      -273.3789   2.0000                                                             
     2  0  0.50       -13.7508   2.0000                                                             
     2  1  0.50        -5.2854   2.0000                                                             
     3  2  1.50        -5.4423   0.0000                                                             
   Description                                                                                      
     l       E           TYP  RCUT    TYP  RCUT                                                     
     0    -13.7508458     23  1.100                                                                 
     0     -8.2022199     23  1.100                                                                 
     1     -5.2854383     23  1.100                                                                 
     1      1.1560700     23  1.100                                                                 
     2     -5.4423304      7  1.100                                                                 
  local pseudopotential read in
  partial core-charges read in
  partial kinetic energy density read in
  atomic valenz-charges read in
  non local Contribution for L=           0  read in
    real space projection operators read in
  non local Contribution for L=           0  read in
    real space projection operators read in
  non local Contribution for L=           1  read in
    real space projection operators read in
  non local Contribution for L=           1  read in
    real space projection operators read in
    PAW grid and wavefunctions read in

   number of l-projection  operators is LMAX  =           4
   number of lm-projection operators is LMMAX =           8

 POTCAR:    PAW_PBE O_h 06Feb2004                 
   VRHFIN =O: s2p4                                                                                  
   LEXCH  = PE                                                                                      
   EATOM  =   432.3788 eV,   31.7789 Ry                                                             
                                                                                                    
   TITEL  = PAW_PBE O_h 06Feb2004                                                                   
   LULTRA =        F    use ultrasoft PP ?                                                          
   IUNSCR =        1    unscreen: 0-lin 1-nonlin 2-no                                               
   RPACOR =    0.800    partial core radius                                                         
   POMASS =   16.000; ZVAL   =    6.000    mass and valenz                                          
   RCORE  =    1.100    outmost cutoff radius                                                       
   RWIGS  =    1.400; RWIGS  =    0.741    wigner-seitz radius (au A)                               
   ENMAX  =  700.000; ENMIN  =  500.000 eV                                                          
   ICORE  =        2    local potential                                                             
   LCOR   =        T    correct aug charges                                                         
   LPAW   =        T    paw PP                                                                      
   EAUG   =  888.804                                                                                
   DEXC   =    0.000                                                                                
   RMAX   =    1.128    core radius for proj-oper                                                   
   RAUG   =    1.300    factor for augmentation sphere                                              
   RDEP   =    1.125    radius for radial grids                                                     
   RDEPT  =    1.088    core radius for aug-charge                                                  
                                                                                                    
   Atomic configuration                                                                             
    4 entries                                                                                       
     n  l   j            E        occ.                                                              
     1  0  0.50      -514.6923   2.0000                                                             
     2  0  0.50       -23.9615   2.0000                                                             
     2  1  0.50        -9.0305   4.0000                                                             
     3  2  1.50        -9.5241   0.0000                                                             
   Description                                                                                      
     l       E           TYP  RCUT    TYP  RCUT                                                     
     0    -23.9615319     23  1.100                                                                 
     0    -25.3221145     23  1.100                                                                 
     1     -9.0304911     23  1.100                                                                 
     1     -5.4802209     23  1.100                                                                 
     2     -9.5240782      7  1.100                                                                 
  local pseudopotential read in
  partial core-charges read in
  partial kinetic energy density read in
  atomic valenz-charges read in
  non local Contribution for L=           0  read in
    real space projection operators read in
  non local Contribution for L=           0  read in
    real space projection operators read in
  non local Contribution for L=           1  read in
    real space projection operators read in
  non local Contribution for L=           1  read in
    real space projection operators read in
    PAW grid and wavefunctions read in

   number of l-projection  operators is LMAX  =           4
   number of lm-projection operators is LMMAX =           8

 POTCAR:    PAW_PBE N_h 06Feb2004                 
   VRHFIN =N: s2p3                                                                                  
   LEXCH  = PE                                                                                      
   EATOM  =   264.5486 eV,   19.4438 Ry                                                             
                                                                                                    
   TITEL  = PAW_PBE N_h 06Feb2004                                                                   
   LULTRA =        F    use ultrasoft PP ?                                                          
   IUNSCR =        1    unscreen: 0-lin 1-nonlin 2-no                                               
   RPACOR =    0.800    partial core radius                                                         
   POMASS =   14.001; ZVAL   =    5.000    mass and valenz                                          
   RCORE  =    1.100    outmost cutoff radius                                                       
   RWIGS  =    1.480; RWIGS  =    0.783    wigner-seitz radius (au A)                               
   ENMAX  =  700.000; ENMIN  =  500.000 eV                                                          
   ICORE  =        2    local potential                                                             
   LCOR   =        T    correct aug charges                                                         
   LPAW   =        T    paw PP                                                                      
   EAUG   =  904.640                                                                                
   DEXC   =    0.000                                                                                
   RMAX   =    1.127    core radius for proj-oper                                                   
   RAUG   =    1.300    factor for augmentation sphere                                              
   RDEP   =    1.115    radius for radial grids                                                     
   RDEPT  =    1.106    core radius for aug-charge                                                  
                                                                                                    
   Atomic configuration                                                                             
    4 entries                                                                                       
     n  l   j            E        occ.                                                              
     1  0  0.50      -384.7179   2.0000                                                             
     2  0  0.50       -18.5828   2.0000                                                             
     2  1  0.50        -7.0898   3.0000                                                             
     3  2  1.50        -6.8029   0.0000                                                             
   Description                                                                                      
     l       E           TYP  RCUT    TYP  RCUT                                                     
     0    -18.5828117     23  1.100                                                                 
     0    -15.0750597     23  1.100                                                                 
     1     -7.0897851     23  1.100                                                                 
     1     -1.9663412     23  1.100                                                                 
     2     -6.8029130      7  1.100                                                                 
  local pseudopotential read in
  partial core-charges read in
  partial kinetic energy density read in
  kinetic energy density of atom read in
  atomic valenz-charges read in
  non local Contribution for L=           0  read in
    real space projection operators read in
  non local Contribution for L=           0  read in
    real space projection operators read in
  non local Contribution for L=           1  read in
    real space projection operators read in
  non local Contribution for L=           1  read in
    real space projection operators read in
    PAW grid and wavefunctions read in

   number of l-projection  operators is LMAX  =           4
   number of lm-projection operators is LMMAX =           8

 POTCAR:    PAW_PBE H_h 06Feb2004                 
   VRHFIN =H: ultrasoft test                                                                        
   LEXCH  = PE                                                                                      
   EATOM  =    12.4884 eV,    0.9179 Ry                                                             
                                                                                                    
   TITEL  = PAW_PBE H_h 06Feb2004                                                                   
   LULTRA =        F    use ultrasoft PP ?                                                          
   IUNSCR =        0    unscreen: 0-lin 1-nonlin 2-no                                               
   RPACOR =    0.000    partial core radius                                                         
   POMASS =    1.000; ZVAL   =    1.000    mass and valenz                                          
   RCORE  =    0.800    outmost cutoff radius                                                       
   RWIGS  =    0.700; RWIGS  =    0.370    wigner-seitz radius (au A)                               
   ENMAX  =  700.000; ENMIN  =  350.000 eV                                                          
   RCLOC  =    0.701    cutoff for local pot                                                        
   LCOR   =        T    correct aug charges                                                         
   LPAW   =        T    paw PP                                                                      
   EAUG   = 1000.000                                                                                
   RMAX   =    0.819    core radius for proj-oper                                                   
   RAUG   =    1.000    factor for augmentation sphere                                              
   RDEP   =    0.817    radius for radial grids                                                     
   RDEPT  =    0.817    core radius for aug-charge                                                  
                                                                                                    
   Atomic configuration                                                                             
    2 entries                                                                                       
     n  l   j            E        occ.                                                              
     1  0  0.50        -6.4927   1.0000                                                             
     2  1  0.50        -3.4015   0.0000                                                             
   Description                                                                                      
     l       E           TYP  RCUT    TYP  RCUT                                                     
     0     -6.4927493     23  0.800                                                                 
     0      6.8029130     23  0.800                                                                 
     1     -6.8029130     23  0.800                                                                 
  local pseudopotential read in
  atomic valenz-charges read in
  non local Contribution for L=           0  read in
    real space projection operators read in
  non local Contribution for L=           0  read in
    real space projection operators read in
  non local Contribution for L=           1  read in
    real space projection operators read in
    PAW grid and wavefunctions read in

   number of l-projection  operators is LMAX  =           3
   number of lm-projection operators is LMMAX =           5

 -----------------------------------------------------------------------------
|                                                                             |
|               ----> ADVICE to this user running VASP <----                  |
|                                                                             |
|     You enforced a specific xc type in the INCAR file but a different       |
|     type was found in the POTCAR file.                                      |
|     I HOPE YOU KNOW WHAT YOU ARE DOING!                                     |
|                                                                             |
 -----------------------------------------------------------------------------

  PAW_PBE C_h 06Feb2004                 :
 energy of atom  1       EATOM= -147.1560
 kinetic energy error for atom=    0.0031 (will be added to EATOM!!)
  PAW_PBE O_h 06Feb2004                 :
 energy of atom  2       EATOM= -432.3788
 kinetic energy error for atom=    0.0171 (will be added to EATOM!!)
  PAW_PBE N_h 06Feb2004                 :
 energy of atom  3       EATOM= -264.5486
 kinetic energy error for atom=    0.0081 (will be added to EATOM!!)
  PAW_PBE H_h 06Feb2004                 :
 energy of atom  4       EATOM=  -12.4884
 kinetic energy error for atom=    0.0006 (will be added to EATOM!!)


 POSCAR:  C  O  N  H
  positions in cartesian coordinates
  No initial velocities read in
 exchange correlation table for  LEXCH =       12
   RHO(1)=    0.500       N(1)  =     2000
   RHO(2)=  100.500       N(2)  =     4000

 VTST: version 4.1, (05/19/21)

 CHAIN: initializing optimizer
 
 OPT: Using VASP Dynamics algorithm
 CHAIN: Read ICHAIN            0

 POSCAR:  C  O  N  H
  positions in cartesian coordinates
  No initial velocities read in



--------------------------------------------------------------------------------------------------------


 ion  position               nearest neighbor table
   1  0.000  0.427  0.326-   3 1.27   5 1.35   6 1.35
   2  0.500  0.927  0.674-   4 1.27   8 1.35   7 1.35
   3  1.000  0.427  0.598-   1 1.27
   4  0.500  0.927  0.402-   2 1.27
   5  0.147  0.574  0.177-  13 1.02   9 1.02   1 1.35
   6  0.853  0.280  0.177-  14 1.02  10 1.02   1 1.35
   7  0.647  0.780  0.823-  15 1.02  11 1.02   2 1.35
   8  0.353  0.074  0.823-  16 1.02  12 1.02   2 1.35
   9  0.260  0.687  0.283-   5 1.02
  10  0.740  0.167  0.283-   6 1.02
  11  0.760  0.667  0.717-   7 1.02
  12  0.240  0.187  0.717-   8 1.02
  13  0.146  0.573  0.959-   5 1.02
  14  0.854  0.281  0.959-   6 1.02
  15  0.646  0.781  0.041-   7 1.02
  16  0.354  0.073  0.041-   8 1.02

  LATTYP: Found a simple tetragonal cell.
 ALAT       =     5.5650000000
 C/A-ratio  =     0.8416891285
  
  Lattice vectors:
  
 A1 = (   5.5650000000,   0.0000000000,   0.0000000000)
 A2 = (   0.0000000000,   5.5650000000,   0.0000000000)
 A3 = (   0.0000000000,   0.0000000000,   4.6840000000)


Analysis of symmetry for initial positions (statically):
=====================================================================
 Subroutine PRICEL returns:
 Original cell was already a primitive cell.
 

 Routine SETGRP: Setting up the symmetry group for a 
 simple tetragonal supercell.


 Subroutine GETGRP returns: Found  1 space group operations
 (whereof  1 operations were pure point group operations)
 out of a pool of 16 trial point group operations.


The static configuration has the point symmetry C_1 .


Analysis of symmetry for dynamics (positions and initial velocities):
=====================================================================
 Subroutine PRICEL returns:
 Original cell was already a primitive cell.
 

 Routine SETGRP: Setting up the symmetry group for a 
 simple tetragonal supercell.


 Subroutine GETGRP returns: Found  1 space group operations
 (whereof  1 operations were pure point group operations)
 out of a pool of 16 trial point group operations.


The dynamic configuration has the point symmetry C_1 .


 Subroutine INISYM returns: Found  1 space group operations
 (whereof  1 operations are pure point group operations),
 and found     1 'primitive' translations


----------------------------------------------------------------------------------------

                                     Primitive cell                                     

  volume of cell :     145.0598

  direct lattice vectors                    reciprocal lattice vectors
     5.565000000  0.000000000  0.000000000     0.179694519  0.000000000  0.000000000
     0.000000000  5.565000000  0.000000000     0.000000000  0.179694519  0.000000000
     0.000000000  0.000000000  4.684000000     0.000000000  0.000000000  0.213492741

  length of vectors
     5.565000000  5.565000000  4.684000000     0.179694519  0.179694519  0.213492741

  position of ions in fractional coordinates (direct lattice)
     0.000000146  0.427123573  0.326058672
     0.499999930  0.927122909  0.673941525
     0.999999854  0.427123350  0.597852280
     0.499999924  0.927123013  0.402147921
     0.146812264  0.573933227  0.176875004
     0.853187842  0.280313828  0.176875281
     0.646812221  0.780313118  0.823124997
     0.353187759  0.073932713  0.823124742
     0.260085855  0.687210944  0.282931726
     0.739913749  0.167035376  0.282931867
     0.760085891  0.667035345  0.717067948
     0.239913922  0.187210835  0.717067878
     0.145753410  0.572876866  0.959260297
     0.854246226  0.281369506  0.959260096
     0.645753561  0.781369328  0.040739795
     0.354246123  0.072876987  0.040739703

  ion indices of the primitive-cell ions
   primitive index   ion index
                 1           1
                 2           2
                 3           3
                 4           4
                 5           5
                 6           6
                 7           7
                 8           8
                 9           9
                10          10
                11          11
                12          12
                13          13
                14          14
                15          15
                16          16

----------------------------------------------------------------------------------------



 KPOINTS: auto                                    

Automatic generation of k-mesh.
 Grid dimensions read from file:
 generate k-points for:    5    5    6

 Generating k-lattice:

  Cartesian coordinates                     Fractional coordinates (reciprocal lattice)
     0.035938904  0.000000000  0.000000000     0.200000000  0.000000000  0.000000000
     0.000000000  0.035938904  0.000000000     0.000000000  0.200000000  0.000000000
     0.000000000  0.000000000  0.035582124     0.000000000  0.000000000  0.166666667

  Length of vectors
     0.035938904  0.035938904  0.035582124

  Shift w.r.t. Gamma in fractional coordinates (k-lattice)
     0.000000000  0.000000000  0.000000000

 
 Subroutine IBZKPT returns following result:
 ===========================================
 
 Found     76 irreducible k-points:
 
 Following reciprocal coordinates:
            Coordinates               Weight
  0.000000  0.000000  0.000000      1.000000
  0.200000  0.000000  0.000000      2.000000
  0.000000  0.200000  0.000000      2.000000
  0.400000  0.000000  0.000000      2.000000
  0.000000  0.400000  0.000000      2.000000
  0.200000  0.200000  0.000000      2.000000
 -0.200000  0.200000  0.000000      2.000000
  0.400000  0.200000  0.000000      2.000000
 -0.200000  0.400000  0.000000      2.000000
 -0.400000  0.200000  0.000000      2.000000
  0.200000  0.400000  0.000000      2.000000
  0.400000  0.400000  0.000000      2.000000
 -0.400000  0.400000  0.000000      2.000000
  0.000000  0.000000  0.166667      2.000000
  0.200000  0.000000  0.166667      2.000000
  0.000000  0.200000  0.166667      2.000000
 -0.200000  0.000000  0.166667      2.000000
  0.000000 -0.200000  0.166667      2.000000
  0.400000  0.000000  0.166667      2.000000
  0.000000  0.400000  0.166667      2.000000
 -0.400000  0.000000  0.166667      2.000000
  0.000000 -0.400000  0.166667      2.000000
  0.200000  0.200000  0.166667      2.000000
 -0.200000  0.200000  0.166667      2.000000
 -0.200000 -0.200000  0.166667      2.000000
  0.200000 -0.200000  0.166667      2.000000
  0.400000  0.200000  0.166667      2.000000
 -0.200000  0.400000  0.166667      2.000000
 -0.400000 -0.200000  0.166667      2.000000
  0.200000 -0.400000  0.166667      2.000000
 -0.400000  0.200000 -0.166667      2.000000
  0.200000  0.400000 -0.166667      2.000000
  0.400000 -0.200000 -0.166667      2.000000
 -0.200000 -0.400000 -0.166667      2.000000
  0.400000  0.400000  0.166667      2.000000
 -0.400000  0.400000  0.166667      2.000000
 -0.400000 -0.400000  0.166667      2.000000
  0.400000 -0.400000  0.166667      2.000000
  0.000000  0.000000  0.333333      2.000000
  0.200000  0.000000  0.333333      2.000000
  0.000000  0.200000  0.333333      2.000000
 -0.200000  0.000000  0.333333      2.000000
  0.000000 -0.200000  0.333333      2.000000
  0.400000  0.000000  0.333333      2.000000
  0.000000  0.400000  0.333333      2.000000
 -0.400000  0.000000  0.333333      2.000000
  0.000000 -0.400000  0.333333      2.000000
  0.200000  0.200000  0.333333      2.000000
 -0.200000  0.200000  0.333333      2.000000
 -0.200000 -0.200000  0.333333      2.000000
  0.200000 -0.200000  0.333333      2.000000
  0.400000  0.200000  0.333333      2.000000
 -0.200000  0.400000  0.333333      2.000000
 -0.400000 -0.200000  0.333333      2.000000
  0.200000 -0.400000  0.333333      2.000000
 -0.400000  0.200000 -0.333333      2.000000
  0.200000  0.400000 -0.333333      2.000000
  0.400000 -0.200000 -0.333333      2.000000
 -0.200000 -0.400000 -0.333333      2.000000
  0.400000  0.400000  0.333333      2.000000
 -0.400000  0.400000  0.333333      2.000000
 -0.400000 -0.400000  0.333333      2.000000
  0.400000 -0.400000  0.333333      2.000000
  0.000000  0.000000  0.500000      1.000000
  0.200000  0.000000  0.500000      2.000000
  0.000000  0.200000  0.500000      2.000000
  0.400000  0.000000  0.500000      2.000000
  0.000000  0.400000  0.500000      2.000000
  0.200000  0.200000  0.500000      2.000000
 -0.200000  0.200000  0.500000      2.000000
  0.400000  0.200000  0.500000      2.000000
 -0.200000  0.400000  0.500000      2.000000
 -0.400000  0.200000  0.500000      2.000000
  0.200000  0.400000  0.500000      2.000000
  0.400000  0.400000  0.500000      2.000000
 -0.400000  0.400000  0.500000      2.000000
 
 Following cartesian coordinates:
            Coordinates               Weight
  0.000000  0.000000  0.000000      1.000000
  0.035939  0.000000  0.000000      2.000000
  0.000000  0.035939  0.000000      2.000000
  0.071878  0.000000  0.000000      2.000000
  0.000000  0.071878  0.000000      2.000000
  0.035939  0.035939  0.000000      2.000000
 -0.035939  0.035939  0.000000      2.000000
  0.071878  0.035939  0.000000      2.000000
 -0.035939  0.071878  0.000000      2.000000
 -0.071878  0.035939  0.000000      2.000000
  0.035939  0.071878  0.000000      2.000000
  0.071878  0.071878  0.000000      2.000000
 -0.071878  0.071878  0.000000      2.000000
  0.000000  0.000000  0.035582      2.000000
  0.035939  0.000000  0.035582      2.000000
  0.000000  0.035939  0.035582      2.000000
 -0.035939  0.000000  0.035582      2.000000
  0.000000 -0.035939  0.035582      2.000000
  0.071878  0.000000  0.035582      2.000000
  0.000000  0.071878  0.035582      2.000000
 -0.071878  0.000000  0.035582      2.000000
  0.000000 -0.071878  0.035582      2.000000
  0.035939  0.035939  0.035582      2.000000
 -0.035939  0.035939  0.035582      2.000000
 -0.035939 -0.035939  0.035582      2.000000
  0.035939 -0.035939  0.035582      2.000000
  0.071878  0.035939  0.035582      2.000000
 -0.035939  0.071878  0.035582      2.000000
 -0.071878 -0.035939  0.035582      2.000000
  0.035939 -0.071878  0.035582      2.000000
 -0.071878  0.035939 -0.035582      2.000000
  0.035939  0.071878 -0.035582      2.000000
  0.071878 -0.035939 -0.035582      2.000000
 -0.035939 -0.071878 -0.035582      2.000000
  0.071878  0.071878  0.035582      2.000000
 -0.071878  0.071878  0.035582      2.000000
 -0.071878 -0.071878  0.035582      2.000000
  0.071878 -0.071878  0.035582      2.000000
  0.000000  0.000000  0.071164      2.000000
  0.035939  0.000000  0.071164      2.000000
  0.000000  0.035939  0.071164      2.000000
 -0.035939  0.000000  0.071164      2.000000
  0.000000 -0.035939  0.071164      2.000000
  0.071878  0.000000  0.071164      2.000000
  0.000000  0.071878  0.071164      2.000000
 -0.071878  0.000000  0.071164      2.000000
  0.000000 -0.071878  0.071164      2.000000
  0.035939  0.035939  0.071164      2.000000
 -0.035939  0.035939  0.071164      2.000000
 -0.035939 -0.035939  0.071164      2.000000
  0.035939 -0.035939  0.071164      2.000000
  0.071878  0.035939  0.071164      2.000000
 -0.035939  0.071878  0.071164      2.000000
 -0.071878 -0.035939  0.071164      2.000000
  0.035939 -0.071878  0.071164      2.000000
 -0.071878  0.035939 -0.071164      2.000000
  0.035939  0.071878 -0.071164      2.000000
  0.071878 -0.035939 -0.071164      2.000000
 -0.035939 -0.071878 -0.071164      2.000000
  0.071878  0.071878  0.071164      2.000000
 -0.071878  0.071878  0.071164      2.000000
 -0.071878 -0.071878  0.071164      2.000000
  0.071878 -0.071878  0.071164      2.000000
  0.000000  0.000000  0.106746      1.000000
  0.035939  0.000000  0.106746      2.000000
  0.000000  0.035939  0.106746      2.000000
  0.071878  0.000000  0.106746      2.000000
  0.000000  0.071878  0.106746      2.000000
  0.035939  0.035939  0.106746      2.000000
 -0.035939  0.035939  0.106746      2.000000
  0.071878  0.035939  0.106746      2.000000
 -0.035939  0.071878  0.106746      2.000000
 -0.071878  0.035939  0.106746      2.000000
  0.035939  0.071878  0.106746      2.000000
  0.071878  0.071878  0.106746      2.000000
 -0.071878  0.071878  0.106746      2.000000
 


--------------------------------------------------------------------------------------------------------




 Dimension of arrays:
   k-points           NKPTS =     76   k-points in BZ     NKDIM =     76   number of bands    NBANDS=    128
   number of dos      NEDOS =    301   number of ions     NIONS =     16
   non local maximal  LDIM  =      4   non local SUM 2l+1 LMDIM =      8
   total plane-waves  NPLWV = 172800
   max r-space proj   IRMAX =      1   max aug-charges    IRDMAX=   8886
   dimension x,y,z NGX =    60 NGY =   60 NGZ =   48
   dimension x,y,z NGXF=   120 NGYF=  120 NGZF=   96
   support grid    NGXF=   120 NGYF=  120 NGZF=   96
   ions per type =               2   2   4   8
   NGX,Y,Z   is equivalent  to a cutoff of  17.92, 17.92, 17.04 a.u.
   NGXF,Y,Z  is equivalent  to a cutoff of  35.85, 35.85, 34.07 a.u.

 SYSTEM =  unknown system                          
 POSCAR =   C  O  N  H                             

 Startparameter for this run:
   NWRITE =      2    write-flag & timer
   PREC   = accura    normal or accurate (medium, high low for compatibility)
   ISTART =      0    job   : 0-new  1-cont  2-samecut
   ICHARG =      2    charge: 1-file 2-atom 10-const
   ISPIN  =      1    spin polarized calculation?
   LNONCOLLINEAR =      F non collinear calculations
   LSORBIT =      F    spin-orbit coupling
   INIWAV =      1    electr: 0-lowe 1-rand  2-diag
   LASPH  =      F    aspherical Exc in radial PAW
 Electronic Relaxation 1
   ENCUT  = 1000.0 eV  73.50 Ry    8.57 a.u.  14.35 14.35 12.08*2*pi/ulx,y,z
   ENINI  = 1000.0     initial cutoff
   ENAUG  = 1000.0 eV  augmentation charge cutoff
   NELM   =     60;   NELMIN=  2; NELMDL= -5     # of ELM steps 
   EDIFF  = 0.1E-06   stopping-criterion for ELM
   LREAL  =      F    real-space projection
   NLSPLINE    = F    spline interpolate recip. space projectors
   LCOMPAT=      F    compatible to vasp.4.4
   GGA_COMPAT  = T    GGA compatible to vasp.4.4-vasp.4.6
   LMAXPAW     = -100 max onsite density
   LMAXMIX     =    2 max onsite mixed and CHGCAR
   VOSKOWN=      0    Vosko Wilk Nusair interpolation
   ROPT   =    0.00000   0.00000   0.00000   0.00000
 Ionic relaxation
   EDIFFG = 0.1E-05   stopping-criterion for IOM
   NSW    =      0    number of steps for IOM
   NBLOCK =      1;   KBLOCK =      1    inner block; outer block 
   IBRION =     -1    ionic relax: 0-MD 1-quasi-New 2-CG
   NFREE  =      0    steps in history (QN), initial steepest desc. (CG)
   ISIF   =      0    stress and relaxation
   IWAVPR =     10    prediction:  0-non 1-charg 2-wave 3-comb
   ISYM   =      2    0-nonsym 1-usesym 2-fastsym
   LCORR  =      T    Harris-Foulkes like correction to forces

   POTIM  = 0.5000    time-step for ionic-motion
   TEIN   =    0.0    initial temperature
   TEBEG  =    0.0;   TEEND  =   0.0 temperature during run
   SMASS  =  -3.00    Nose mass-parameter (am)
   estimated Nose-frequenzy (Omega)   =  0.10E-29 period in steps = 0.13E+47 mass=  -0.708E-27a.u.
   SCALEE = 1.0000    scale energy and forces
   NPACO  =    256;   APACO  = 10.0  distance and # of slots for P.C.
   PSTRESS=    0.0 pullay stress

  Mass of Ions in am
   POMASS =  12.01 16.00 14.00  1.00
  Ionic Valenz
   ZVAL   =   4.00  6.00  5.00  1.00
  Atomic Wigner-Seitz radii
   RWIGS  =  -1.00 -1.00 -1.00 -1.00
  virtual crystal weights 
   VCA    =   1.00  1.00  1.00  1.00
   NELECT =      48.0000    total number of electrons
   NUPDOWN=      -1.0000    fix difference up-down

 DOS related values:
   EMIN   =  10.00;   EMAX   =-10.00  energy-range for DOS
   EFERMI =   0.00;   METHOD = LEGACY      
   ISMEAR =     0;   SIGMA  =   0.01  broadening in eV -4-tet -1-fermi 0-gaus

 Electronic relaxation 2 (details)
   IALGO  =     58    algorithm
   LDIAG  =      T    sub-space diagonalisation (order eigenvalues)
   LSUBROT=      F    optimize rotation matrix (better conditioning)
   TURBO    =      0    0=normal 1=particle mesh
   IRESTART =      0    0=no restart 2=restart with 2 vectors
   NREBOOT  =      0    no. of reboots
   NMIN     =      0    reboot dimension
   EREF     =   0.00    reference energy to select bands
   IMIX   =      4    mixing-type and parameters
     AMIX     =   0.40;   BMIX     =  1.00
     AMIX_MAG =   1.60;   BMIX_MAG =  1.00
     AMIN     =   0.10
     WC   =   100.;   INIMIX=   1;  MIXPRE=   1;  MAXMIX= -45

 Intra band minimization:
   WEIMIN = 0.0000     energy-eigenvalue tresh-hold
   EBREAK =  0.20E-09  absolut break condition
   DEPER  =   0.30     relativ break condition  

   TIME   =   0.40     timestep for ELM

  volume/ion in A,a.u.               =       9.07        61.18
  Fermi-wavevector in a.u.,A,eV,Ry     =   1.132330  2.139793 17.444984  1.282170
  Thomas-Fermi vector in A             =   2.269030

 Write flags
   LWAVE        =      F    write WAVECAR
   LDOWNSAMPLE  =      F    k-point downsampling of WAVECAR
   LCHARG       =      T    write CHGCAR
   LVTOT        =      F    write LOCPOT, total local potential
   LVHAR        =      F    write LOCPOT, Hartree potential only
   LELF         =      F    write electronic localiz. function (ELF)
   LORBIT       =      0    0 simple, 1 ext, 2 COOP (PROOUT), +10 PAW based schemes


 Dipole corrections
   LMONO  =      F    monopole corrections only (constant potential shift)
   LDIPOL =      F    correct potential (dipole corrections)
   IDIPOL =      0    1-x, 2-y, 3-z, 4-all directions 
   EPSILON=  1.0000000 bulk dielectric constant

 Exchange correlation treatment:
   GGA     =    B5    GGA type
   LEXCH   =    12    internal setting for exchange type
   LIBXC   =     F    Libxc                    
   VOSKOWN =     0    Vosko Wilk Nusair interpolation
   LHFCALC =     F    Hartree Fock is set to
   LHFONE  =     F    Hartree Fock one center treatment
   AEXX    =    0.0000 exact exchange contribution

 Linear response parameters
   LEPSILON=     F    determine dielectric tensor
   LRPA    =     F    only Hartree local field effects (RPA)
   LNABLA  =     F    use nabla operator in PAW spheres
   LVEL    =     F    velocity operator in full k-point grid
   CSHIFT  =0.1000    complex shift for real part using Kramers Kronig
   OMEGAMAX=  -1.0    maximum frequency
   DEG_THRESHOLD= 0.2000000E-02 threshold for treating states as degnerate
   RTIME   =   -0.100 relaxation time in fs
  (WPLASMAI=    0.000 imaginary part of plasma frequency in eV, 0.658/RTIME)
   DFIELD  = 0.0000000 0.0000000 0.0000000 field for delta impulse in time

  Optional k-point grid parameters
   LKPOINTS_OPT  =     F    use optional k-point grid
   KPOINTS_OPT_MODE=     1    mode for optional k-point grid

 Orbital magnetization related:
   ORBITALMAG=     F  switch on orbital magnetization
   LCHIMAG   =     F  perturbation theory with respect to B field
   DQ        =  0.001000  dq finite difference perturbation B field
   LLRAUG    =     F  two centre corrections for induced B field
   LBONE     =     F  B-component reconstruction in AE one-centre
   LVGVCALC  =     T  calculate vGv susceptibility
   LVGVAPPL  =     F  apply vGv susceptibility instead of pGv for G=0

 Random number generation:
   RANDOM_GENERATOR = DEFAULT
   PCG_SEED         = not used


--------------------------------------------------------------------------------------------------------


 Static calculation
 charge density and potential will be updated during run
 non-spin polarized calculation
 Conjugate gradient for all bands (Freysoldt, et al. PRB 79, 241103 (2009))
 preconditioned conjugated gradient                                        
 perform sub-space diagonalisation
    before iterative eigenvector-optimisation
 modified Broyden-mixing scheme, WC =      100.0
 initial mixing is a Kerker type mixing with AMIX =  0.4000 and BMIX =      1.0000
 Hartree-type preconditioning will be used
 using additional bands          104
 reciprocal scheme for non local part
 use partial core corrections
 no Harris-corrections to forces 
 use gradient corrections 
 use of overlap-Matrix (Vanderbilt PP)
 Gauss-broadening in eV      SIGMA  =   0.01


--------------------------------------------------------------------------------------------------------


  energy-cutoff  :     1000.00
  volume of cell :      145.06
      direct lattice vectors                 reciprocal lattice vectors
     5.565000000  0.000000000  0.000000000     0.179694519  0.000000000  0.000000000
     0.000000000  5.565000000  0.000000000     0.000000000  0.179694519  0.000000000
     0.000000000  0.000000000  4.684000000     0.000000000  0.000000000  0.213492741

  length of vectors
     5.565000000  5.565000000  4.684000000     0.179694519  0.179694519  0.213492741



 k-points in units of 2pi/SCALE and weight: auto                                    
   0.00000000  0.00000000  0.00000000       0.007
   0.03593890  0.00000000  0.00000000       0.013
   0.00000000  0.03593890  0.00000000       0.013
   0.07187781  0.00000000  0.00000000       0.013
   0.00000000  0.07187781  0.00000000       0.013
   0.03593890  0.03593890  0.00000000       0.013
  -0.03593890  0.03593890  0.00000000       0.013
   0.07187781  0.03593890  0.00000000       0.013
  -0.03593890  0.07187781  0.00000000       0.013
  -0.07187781  0.03593890  0.00000000       0.013
   0.03593890  0.07187781  0.00000000       0.013
   0.07187781  0.07187781  0.00000000       0.013
  -0.07187781  0.07187781  0.00000000       0.013
   0.00000000  0.00000000  0.03558212       0.013
   0.03593890  0.00000000  0.03558212       0.013
   0.00000000  0.03593890  0.03558212       0.013
  -0.03593890  0.00000000  0.03558212       0.013
   0.00000000 -0.03593890  0.03558212       0.013
   0.07187781  0.00000000  0.03558212       0.013
   0.00000000  0.07187781  0.03558212       0.013
  -0.07187781  0.00000000  0.03558212       0.013
   0.00000000 -0.07187781  0.03558212       0.013
   0.03593890  0.03593890  0.03558212       0.013
  -0.03593890  0.03593890  0.03558212       0.013
  -0.03593890 -0.03593890  0.03558212       0.013
   0.03593890 -0.03593890  0.03558212       0.013
   0.07187781  0.03593890  0.03558212       0.013
  -0.03593890  0.07187781  0.03558212       0.013
  -0.07187781 -0.03593890  0.03558212       0.013
   0.03593890 -0.07187781  0.03558212       0.013
  -0.07187781  0.03593890 -0.03558212       0.013
   0.03593890  0.07187781 -0.03558212       0.013
   0.07187781 -0.03593890 -0.03558212       0.013
  -0.03593890 -0.07187781 -0.03558212       0.013
   0.07187781  0.07187781  0.03558212       0.013
  -0.07187781  0.07187781  0.03558212       0.013
  -0.07187781 -0.07187781  0.03558212       0.013
   0.07187781 -0.07187781  0.03558212       0.013
   0.00000000  0.00000000  0.07116425       0.013
   0.03593890  0.00000000  0.07116425       0.013
   0.00000000  0.03593890  0.07116425       0.013
  -0.03593890  0.00000000  0.07116425       0.013
   0.00000000 -0.03593890  0.07116425       0.013
   0.07187781  0.00000000  0.07116425       0.013
   0.00000000  0.07187781  0.07116425       0.013
  -0.07187781  0.00000000  0.07116425       0.013
   0.00000000 -0.07187781  0.07116425       0.013
   0.03593890  0.03593890  0.07116425       0.013
  -0.03593890  0.03593890  0.07116425       0.013
  -0.03593890 -0.03593890  0.07116425       0.013
   0.03593890 -0.03593890  0.07116425       0.013
   0.07187781  0.03593890  0.07116425       0.013
  -0.03593890  0.07187781  0.07116425       0.013
  -0.07187781 -0.03593890  0.07116425       0.013
   0.03593890 -0.07187781  0.07116425       0.013
  -0.07187781  0.03593890 -0.07116425       0.013
   0.03593890  0.07187781 -0.07116425       0.013
   0.07187781 -0.03593890 -0.07116425       0.013
  -0.03593890 -0.07187781 -0.07116425       0.013
   0.07187781  0.07187781  0.07116425       0.013
  -0.07187781  0.07187781  0.07116425       0.013
  -0.07187781 -0.07187781  0.07116425       0.013
   0.07187781 -0.07187781  0.07116425       0.013
   0.00000000  0.00000000  0.10674637       0.007
   0.03593890  0.00000000  0.10674637       0.013
   0.00000000  0.03593890  0.10674637       0.013
   0.07187781  0.00000000  0.10674637       0.013
   0.00000000  0.07187781  0.10674637       0.013
   0.03593890  0.03593890  0.10674637       0.013
  -0.03593890  0.03593890  0.10674637       0.013
   0.07187781  0.03593890  0.10674637       0.013
  -0.03593890  0.07187781  0.10674637       0.013
  -0.07187781  0.03593890  0.10674637       0.013
   0.03593890  0.07187781  0.10674637       0.013
   0.07187781  0.07187781  0.10674637       0.013
  -0.07187781  0.07187781  0.10674637       0.013

 k-points in reciprocal lattice and weights: auto                                    
   0.00000000  0.00000000  0.00000000       0.007
   0.20000000  0.00000000  0.00000000       0.013
   0.00000000  0.20000000  0.00000000       0.013
   0.40000000  0.00000000  0.00000000       0.013
   0.00000000  0.40000000  0.00000000       0.013
   0.20000000  0.20000000  0.00000000       0.013
  -0.20000000  0.20000000  0.00000000       0.013
   0.40000000  0.20000000  0.00000000       0.013
  -0.20000000  0.40000000  0.00000000       0.013
  -0.40000000  0.20000000  0.00000000       0.013
   0.20000000  0.40000000  0.00000000       0.013
   0.40000000  0.40000000  0.00000000       0.013
  -0.40000000  0.40000000  0.00000000       0.013
   0.00000000  0.00000000  0.16666667       0.013
   0.20000000  0.00000000  0.16666667       0.013
   0.00000000  0.20000000  0.16666667       0.013
  -0.20000000  0.00000000  0.16666667       0.013
   0.00000000 -0.20000000  0.16666667       0.013
   0.40000000  0.00000000  0.16666667       0.013
   0.00000000  0.40000000  0.16666667       0.013
  -0.40000000  0.00000000  0.16666667       0.013
   0.00000000 -0.40000000  0.16666667       0.013
   0.20000000  0.20000000  0.16666667       0.013
  -0.20000000  0.20000000  0.16666667       0.013
  -0.20000000 -0.20000000  0.16666667       0.013
   0.20000000 -0.20000000  0.16666667       0.013
   0.40000000  0.20000000  0.16666667       0.013
  -0.20000000  0.40000000  0.16666667       0.013
  -0.40000000 -0.20000000  0.16666667       0.013
   0.20000000 -0.40000000  0.16666667       0.013
  -0.40000000  0.20000000 -0.16666667       0.013
   0.20000000  0.40000000 -0.16666667       0.013
   0.40000000 -0.20000000 -0.16666667       0.013
  -0.20000000 -0.40000000 -0.16666667       0.013
   0.40000000  0.40000000  0.16666667       0.013
  -0.40000000  0.40000000  0.16666667       0.013
  -0.40000000 -0.40000000  0.16666667       0.013
   0.40000000 -0.40000000  0.16666667       0.013
   0.00000000  0.00000000  0.33333333       0.013
   0.20000000  0.00000000  0.33333333       0.013
   0.00000000  0.20000000  0.33333333       0.013
  -0.20000000  0.00000000  0.33333333       0.013
   0.00000000 -0.20000000  0.33333333       0.013
   0.40000000  0.00000000  0.33333333       0.013
   0.00000000  0.40000000  0.33333333       0.013
  -0.40000000  0.00000000  0.33333333       0.013
   0.00000000 -0.40000000  0.33333333       0.013
   0.20000000  0.20000000  0.33333333       0.013
  -0.20000000  0.20000000  0.33333333       0.013
  -0.20000000 -0.20000000  0.33333333       0.013
   0.20000000 -0.20000000  0.33333333       0.013
   0.40000000  0.20000000  0.33333333       0.013
  -0.20000000  0.40000000  0.33333333       0.013
  -0.40000000 -0.20000000  0.33333333       0.013
   0.20000000 -0.40000000  0.33333333       0.013
  -0.40000000  0.20000000 -0.33333333       0.013
   0.20000000  0.40000000 -0.33333333       0.013
   0.40000000 -0.20000000 -0.33333333       0.013
  -0.20000000 -0.40000000 -0.33333333       0.013
   0.40000000  0.40000000  0.33333333       0.013
  -0.40000000  0.40000000  0.33333333       0.013
  -0.40000000 -0.40000000  0.33333333       0.013
   0.40000000 -0.40000000  0.33333333       0.013
   0.00000000  0.00000000  0.50000000       0.007
   0.20000000  0.00000000  0.50000000       0.013
   0.00000000  0.20000000  0.50000000       0.013
   0.40000000  0.00000000  0.50000000       0.013
   0.00000000  0.40000000  0.50000000       0.013
   0.20000000  0.20000000  0.50000000       0.013
  -0.20000000  0.20000000  0.50000000       0.013
   0.40000000  0.20000000  0.50000000       0.013
  -0.20000000  0.40000000  0.50000000       0.013
  -0.40000000  0.20000000  0.50000000       0.013
   0.20000000  0.40000000  0.50000000       0.013
   0.40000000  0.40000000  0.50000000       0.013
  -0.40000000  0.40000000  0.50000000       0.013

 position of ions in fractional coordinates (direct lattice) 
   0.00000015  0.42712357  0.32605867
   0.49999993  0.92712291  0.67394153
   0.99999985  0.42712335  0.59785228
   0.49999992  0.92712301  0.40214792
   0.14681226  0.57393323  0.17687500
   0.85318784  0.28031383  0.17687528
   0.64681222  0.78031312  0.82312500
   0.35318776  0.07393271  0.82312474
   0.26008585  0.68721094  0.28293173
   0.73991375  0.16703538  0.28293187
   0.76008589  0.66703534  0.71706795
   0.23991392  0.18721083  0.71706788
   0.14575341  0.57287687  0.95926030
   0.85424623  0.28136951  0.95926010
   0.64575356  0.78136933  0.04073979
   0.35424612  0.07287699  0.04073970

 position of ions in cartesian coordinates  (Angst):
   0.00000082  2.37694268  1.52725882
   2.78249961  5.15943899  3.15674210
   5.56499918  2.37694144  2.80034008
   2.78249958  5.15943957  1.88366086
   0.81701025  3.19393841  0.82848252
   4.74799034  1.55994645  0.82848382
   3.59951001  4.34244250  3.85551749
   1.96548988  0.41143555  3.85551629
   1.44737778  3.82432890  1.32525221
   4.11762001  0.92955187  1.32525286
   4.22987798  3.71205169  3.35874627
   1.33512097  1.04182830  3.35874594
   0.81111773  3.18805976  4.49317523
   4.75388025  1.56582130  4.49317429
   3.59361857  4.34832031  0.19082520
   1.97137967  0.40556043  0.19082477



--------------------------------------------------------------------------------------------------------


 k-point   1 :   0.0000 0.0000 0.0000  plane waves:   10417
 k-point   2 :   0.2000 0.0000 0.0000  plane waves:   10421
 k-point   3 :   0.0000 0.2000 0.0000  plane waves:   10421
 k-point   4 :   0.4000 0.0000 0.0000  plane waves:   10374
 k-point   5 :   0.0000 0.4000 0.0000  plane waves:   10374
 k-point   6 :   0.2000 0.2000 0.0000  plane waves:   10400
 k-point   7 :  -0.2000 0.2000 0.0000  plane waves:   10400
 k-point   8 :   0.4000 0.2000 0.0000  plane waves:   10408
 k-point   9 :  -0.2000 0.4000 0.0000  plane waves:   10408
 k-point  10 :  -0.4000 0.2000 0.0000  plane waves:   10408
 k-point  11 :   0.2000 0.4000 0.0000  plane waves:   10408
 k-point  12 :   0.4000 0.4000 0.0000  plane waves:   10434
 k-point  13 :  -0.4000 0.4000 0.0000  plane waves:   10434
 k-point  14 :   0.0000 0.0000 0.1667  plane waves:   10412
 k-point  15 :   0.2000 0.0000 0.1667  plane waves:   10423
 k-point  16 :   0.0000 0.2000 0.1667  plane waves:   10423
 k-point  17 :  -0.2000 0.0000 0.1667  plane waves:   10423
 k-point  18 :   0.0000-0.2000 0.1667  plane waves:   10423
 k-point  19 :   0.4000 0.0000 0.1667  plane waves:   10411
 k-point  20 :   0.0000 0.4000 0.1667  plane waves:   10411
 k-point  21 :  -0.4000 0.0000 0.1667  plane waves:   10411
 k-point  22 :   0.0000-0.4000 0.1667  plane waves:   10411
 k-point  23 :   0.2000 0.2000 0.1667  plane waves:   10421
 k-point  24 :  -0.2000 0.2000 0.1667  plane waves:   10421
 k-point  25 :  -0.2000-0.2000 0.1667  plane waves:   10421
 k-point  26 :   0.2000-0.2000 0.1667  plane waves:   10421
 k-point  27 :   0.4000 0.2000 0.1667  plane waves:   10412
 k-point  28 :  -0.2000 0.4000 0.1667  plane waves:   10412
 k-point  29 :  -0.4000-0.2000 0.1667  plane waves:   10412
 k-point  30 :   0.2000-0.4000 0.1667  plane waves:   10412
 k-point  31 :  -0.4000 0.2000-0.1667  plane waves:   10412
 k-point  32 :   0.2000 0.4000-0.1667  plane waves:   10412
 k-point  33 :   0.4000-0.2000-0.1667  plane waves:   10412
 k-point  34 :  -0.2000-0.4000-0.1667  plane waves:   10412
 k-point  35 :   0.4000 0.4000 0.1667  plane waves:   10400
 k-point  36 :  -0.4000 0.4000 0.1667  plane waves:   10400
 k-point  37 :  -0.4000-0.4000 0.1667  plane waves:   10400
 k-point  38 :   0.4000-0.4000 0.1667  plane waves:   10400
 k-point  39 :   0.0000 0.0000 0.3333  plane waves:   10424
 k-point  40 :   0.2000 0.0000 0.3333  plane waves:   10416
 k-point  41 :   0.0000 0.2000 0.3333  plane waves:   10416
 k-point  42 :  -0.2000 0.0000 0.3333  plane waves:   10416
 k-point  43 :   0.0000-0.2000 0.3333  plane waves:   10416
 k-point  44 :   0.4000 0.0000 0.3333  plane waves:   10420
 k-point  45 :   0.0000 0.4000 0.3333  plane waves:   10420
 k-point  46 :  -0.4000 0.0000 0.3333  plane waves:   10420
 k-point  47 :   0.0000-0.4000 0.3333  plane waves:   10420
 k-point  48 :   0.2000 0.2000 0.3333  plane waves:   10430
 k-point  49 :  -0.2000 0.2000 0.3333  plane waves:   10430
 k-point  50 :  -0.2000-0.2000 0.3333  plane waves:   10430
 k-point  51 :   0.2000-0.2000 0.3333  plane waves:   10430
 k-point  52 :   0.4000 0.2000 0.3333  plane waves:   10418
 k-point  53 :  -0.2000 0.4000 0.3333  plane waves:   10418
 k-point  54 :  -0.4000-0.2000 0.3333  plane waves:   10418
 k-point  55 :   0.2000-0.4000 0.3333  plane waves:   10418
 k-point  56 :  -0.4000 0.2000-0.3333  plane waves:   10418
 k-point  57 :   0.2000 0.4000-0.3333  plane waves:   10418
 k-point  58 :   0.4000-0.2000-0.3333  plane waves:   10418
 k-point  59 :  -0.2000-0.4000-0.3333  plane waves:   10418
 k-point  60 :   0.4000 0.4000 0.3333  plane waves:   10412
 k-point  61 :  -0.4000 0.4000 0.3333  plane waves:   10412
 k-point  62 :  -0.4000-0.4000 0.3333  plane waves:   10412
 k-point  63 :   0.4000-0.4000 0.3333  plane waves:   10412
 k-point  64 :   0.0000 0.0000 0.5000  plane waves:   10456
 k-point  65 :   0.2000 0.0000 0.5000  plane waves:   10434
 k-point  66 :   0.0000 0.2000 0.5000  plane waves:   10434
 k-point  67 :   0.4000 0.0000 0.5000  plane waves:   10440
 k-point  68 :   0.0000 0.4000 0.5000  plane waves:   10440
 k-point  69 :   0.2000 0.2000 0.5000  plane waves:   10410
 k-point  70 :  -0.2000 0.2000 0.5000  plane waves:   10410
 k-point  71 :   0.4000 0.2000 0.5000  plane waves:   10418
 k-point  72 :  -0.2000 0.4000 0.5000  plane waves:   10418
 k-point  73 :  -0.4000 0.2000 0.5000  plane waves:   10418
 k-point  74 :   0.2000 0.4000 0.5000  plane waves:   10418
 k-point  75 :   0.4000 0.4000 0.5000  plane waves:   10420
 k-point  76 :  -0.4000 0.4000 0.5000  plane waves:   10420

 maximum and minimum number of plane-waves per node :      5244     5174

 maximum number of plane-waves:     10456
 maximum index in each direction: 
   IXMAX=   14   IYMAX=   14   IZMAX=   12
   IXMIN=  -14   IYMIN=  -14   IZMIN=  -12


 parallel 3D FFT for wavefunctions:
    minimum data exchange during FFTs selected (reduces bandwidth)
 parallel 3D FFT for charge:
    minimum data exchange during FFTs selected (reduces bandwidth)


 total amount of memory used by VASP MPI-rank0   160409. kBytes
=======================================================================

   base      :      30000. kBytes
   nonl-proj :     103448. kBytes
   fftplans  :       2999. kBytes
   grid      :       4327. kBytes
   one-center:         24. kBytes
   wavefun   :      19611. kBytes

     INWAV:  cpu time      0.0001: real time      0.0003
 Broyden mixing: mesh for mixing (old mesh)
   NGX = 29   NGY = 29   NGZ = 25
  (NGX  =120   NGY  =120   NGZ  = 96)
  gives a total of  21025 points

 initial charge density was supplied:
 charge density of overlapping atoms calculated
 number of electron      48.0000000 magnetization 
 keeping initial charge density in first step


--------------------------------------------------------------------------------------------------------


 Maximum index for augmentation-charges          493 (set IRDMAX)


--------------------------------------------------------------------------------------------------------


 First call to EWALD:  gamma=   0.337
 Maximum number of real-space cells 3x 3x 3
 Maximum number of reciprocal cells 3x 3x 3

    FEWALD:  cpu time      0.0019: real time      0.0021


--------------------------------------- Ionic step        1  -------------------------------------------




--------------------------------------- Iteration      1(   1)  ---------------------------------------


    POTLOK:  cpu time      0.0804: real time      0.0809
    SETDIJ:  cpu time      0.0124: real time      0.0128
    TRIAL :  cpu time     40.7729: real time     40.7946
    CORREC:  cpu time      0.0017: real time      0.0017
    --------------------------------------------
      LOOP:  cpu time     40.8980: real time     40.9209

 eigenvalue-minimisations  : 19456
 total energy-change (2. order) : 0.9590018E+02  (-0.5079379E+04)
 number of electron      48.0000000 magnetization 
 augmentation part       48.0000000 magnetization 

 Free energy of the ion-electron system (eV)
  ---------------------------------------------------
  alpha Z        PSCENC =        45.44424880
  Ewald energy   TEWEN  =     -1112.25898815
  -Hartree energ DENC   =      -975.75293079
  -exchange      EXHF   =         0.00000000
  -V(xc)+E(xc)   XCENC  =       148.80678727
  PAW double counting   =      1762.43512746    -1750.94129598
  entropy T*S    EENTRO =        -0.00000000
  eigenvalues    EBANDS =      -341.35341048
  atomic energy  EATOM  =      2319.52064447
  ---------------------------------------------------
  free energy    TOTEN  =        95.90018261 eV

  energy without entropy =       95.90018261  energy(sigma->0) =       95.90018261


--------------------------------------------------------------------------------------------------------




--------------------------------------- Iteration      1(   2)  ---------------------------------------


    TRIAL :  cpu time    114.5351: real time    114.6071
    CORREC:  cpu time      0.0004: real time      0.0004
    --------------------------------------------
      LOOP:  cpu time    114.5483: real time    114.6368

 eigenvalue-minimisations  : 29184
 total energy-change (2. order) :-0.1978038E+03  (-0.1978038E+03)
 number of electron      48.0000000 magnetization 
 augmentation part       48.0000000 magnetization 

 Free energy of the ion-electron system (eV)
  ---------------------------------------------------
  alpha Z        PSCENC =        45.44424880
  Ewald energy   TEWEN  =     -1112.25898815
  -Hartree energ DENC   =      -975.75293079
  -exchange      EXHF   =         0.00000000
  -V(xc)+E(xc)   XCENC  =       148.80678727
  PAW double counting   =      1762.43512746    -1750.94129598
  entropy T*S    EENTRO =        -0.00000000
  eigenvalues    EBANDS =      -539.15721088
  atomic energy  EATOM  =      2319.52064447
  ---------------------------------------------------
  free energy    TOTEN  =      -101.90361779 eV

  energy without entropy =     -101.90361779  energy(sigma->0) =     -101.90361779


--------------------------------------------------------------------------------------------------------




--------------------------------------- Iteration      1(   3)  ---------------------------------------


    TRIAL :  cpu time     44.4698: real time     44.4934
    CORREC:  cpu time      0.0005: real time      0.0005
    --------------------------------------------
      LOOP:  cpu time     44.4838: real time     44.5235

 eigenvalue-minimisations  : 19456
 total energy-change (2. order) :-0.1485845E+01  (-0.1485845E+01)
 number of electron      48.0000000 magnetization 
 augmentation part       48.0000000 magnetization 

 Free energy of the ion-electron system (eV)
  ---------------------------------------------------
  alpha Z        PSCENC =        45.44424880
  Ewald energy   TEWEN  =     -1112.25898815
  -Hartree energ DENC   =      -975.75293079
  -exchange      EXHF   =         0.00000000
  -V(xc)+E(xc)   XCENC  =       148.80678727
  PAW double counting   =      1762.43512746    -1750.94129598
  entropy T*S    EENTRO =        -0.00000000
  eigenvalues    EBANDS =      -540.64305559
  atomic energy  EATOM  =      2319.52064447
  ---------------------------------------------------
  free energy    TOTEN  =      -103.38946250 eV

  energy without entropy =     -103.38946250  energy(sigma->0) =     -103.38946250


--------------------------------------------------------------------------------------------------------




--------------------------------------- Iteration      1(   4)  ---------------------------------------


    TRIAL :  cpu time    243.5384: real time    243.6596
    CORREC:  cpu time      0.0048: real time      0.0048
    --------------------------------------------
      LOOP:  cpu time    243.5723: real time    243.6937

 eigenvalue-minimisations  : 38912
 total energy-change (2. order) :-0.2090844E-02  (-0.2090844E-02)
 number of electron      48.0000000 magnetization 
 augmentation part       48.0000000 magnetization 

 Free energy of the ion-electron system (eV)
  ---------------------------------------------------
  alpha Z        PSCENC =        45.44424880
  Ewald energy   TEWEN  =     -1112.25898815
  -Hartree energ DENC   =      -975.75293079
  -exchange      EXHF   =         0.00000000
  -V(xc)+E(xc)   XCENC  =       148.80678727
  PAW double counting   =      1762.43512746    -1750.94129598
  entropy T*S    EENTRO =        -0.00000000
  eigenvalues    EBANDS =      -540.64514644
  atomic energy  EATOM  =      2319.52064447
  ---------------------------------------------------
  free energy    TOTEN  =      -103.39155335 eV

  energy without entropy =     -103.39155335  energy(sigma->0) =     -103.39155335


--------------------------------------------------------------------------------------------------------




--------------------------------------- Iteration      1(   5)  ---------------------------------------


    TRIAL :  cpu time     44.0374: real time     44.0621
    CORREC:  cpu time      0.0045: real time      0.0045
    CHARGE:  cpu time      0.0991: real time      0.1009
    --------------------------------------------
      LOOP:  cpu time     44.1522: real time     44.1991

 eigenvalue-minimisations  : 19456
 total energy-change (2. order) :-0.5246875E-08  (-0.5247633E-08)
 number of electron      47.9999999 magnetization 
 augmentation part        0.2321964 magnetization 

 Free energy of the ion-electron system (eV)
  ---------------------------------------------------
  alpha Z        PSCENC =        45.44424880
  Ewald energy   TEWEN  =     -1112.25898815
  -Hartree energ DENC   =      -975.75293079
  -exchange      EXHF   =         0.00000000
  -V(xc)+E(xc)   XCENC  =       148.80678727
  PAW double counting   =      1762.43512746    -1750.94129598
  entropy T*S    EENTRO =        -0.00000000
  eigenvalues    EBANDS =      -540.64514644
  atomic energy  EATOM  =      2319.52064447
  ---------------------------------------------------
  free energy    TOTEN  =      -103.39155335 eV

  energy without entropy =     -103.39155335  energy(sigma->0) =     -103.39155335


--------------------------------------------------------------------------------------------------------




--------------------------------------- Iteration      1(   6)  ---------------------------------------


    POTLOK:  cpu time      0.0546: real time      0.0546
    SETDIJ:  cpu time      0.0041: real time      0.0041
    TRIAL :  cpu time      5.0532: real time      5.0553
    CORREC:  cpu time      2.3433: real time      2.3444
    CHARGE:  cpu time      0.0844: real time      0.0844
    --------------------------------------------
      LOOP:  cpu time      7.5519: real time      7.5712

 eigenvalue-minimisations  :     0
 total energy-change (2. order) : 0.2290071E+02  (-0.1206551E+02)
 number of electron      47.9999999 magnetization 
 augmentation part        0.0838630 magnetization 

 Free energy of the ion-electron system (eV)
  ---------------------------------------------------
  alpha Z        PSCENC =        45.44424880
  Ewald energy   TEWEN  =     -1112.25898815
  -Hartree energ DENC   =     -1275.14120759
  -exchange      EXHF   =         0.00000000
  -V(xc)+E(xc)   XCENC  =       167.92808891
  PAW double counting   =     12606.41889041   -12599.16758078
  entropy T*S    EENTRO =        -0.00000000
  eigenvalues    EBANDS =      -233.23494231
  atomic energy  EATOM  =      2319.52064447
  ---------------------------------------------------
  free energy    TOTEN  =       -80.49084625 eV

  energy without entropy =      -80.49084625  energy(sigma->0) =      -80.49084625


--------------------------------------------------------------------------------------------------------




--------------------------------------- Iteration      1(   7)  ---------------------------------------


    POTLOK:  cpu time      0.0497: real time      0.0497
    SETDIJ:  cpu time      0.0041: real time      0.0041
    TRIAL :  cpu time      3.8861: real time      3.8886
    CORREC:  cpu time      2.3248: real time      2.3259
    CHARGE:  cpu time      0.0848: real time      0.0853
    --------------------------------------------
      LOOP:  cpu time      6.3617: real time      6.3829

 eigenvalue-minimisations  :     0
 total energy-change (2. order) :-0.1212318E+02  (-0.1042445E+01)
 number of electron      47.9999999 magnetization 
 augmentation part        0.0921192 magnetization 

 Free energy of the ion-electron system (eV)
  ---------------------------------------------------
  alpha Z        PSCENC =        45.44424880
  Ewald energy   TEWEN  =     -1112.25898815
  -Hartree energ DENC   =     -1137.85092540
  -exchange      EXHF   =         0.00000000
  -V(xc)+E(xc)   XCENC  =       159.65407685
  PAW double counting   =     26299.04341942   -26289.32970807
  entropy T*S    EENTRO =        -0.00000000
  eigenvalues    EBANDS =      -376.83679745
  atomic energy  EATOM  =      2319.52064447
  ---------------------------------------------------
  free energy    TOTEN  =       -92.61402953 eV

  energy without entropy =      -92.61402953  energy(sigma->0) =      -92.61402953


--------------------------------------------------------------------------------------------------------




--------------------------------------- Iteration      1(   8)  ---------------------------------------


    POTLOK:  cpu time      0.0493: real time      0.0493
    SETDIJ:  cpu time      0.0041: real time      0.0041
    TRIAL :  cpu time      3.8895: real time      3.8923
    CORREC:  cpu time      2.3188: real time      2.3199
    CHARGE:  cpu time      0.0841: real time      0.0841
    --------------------------------------------
      LOOP:  cpu time      6.3593: real time      6.3792

 eigenvalue-minimisations  :     0
 total energy-change (2. order) :-0.1036601E+01  (-0.6981348E-01)
 number of electron      47.9999999 magnetization 
 augmentation part        0.0891385 magnetization 

 Free energy of the ion-electron system (eV)
  ---------------------------------------------------
  alpha Z        PSCENC =        45.44424880
  Ewald energy   TEWEN  =     -1112.25898815
  -Hartree energ DENC   =     -1115.73951727
  -exchange      EXHF   =         0.00000000
  -V(xc)+E(xc)   XCENC  =       158.30054475
  PAW double counting   =     19169.61803128   -19159.98901473
  entropy T*S    EENTRO =        -0.00000000
  eigenvalues    EBANDS =      -398.54657983
  atomic energy  EATOM  =      2319.52064447
  ---------------------------------------------------
  free energy    TOTEN  =       -93.65063068 eV

  energy without entropy =      -93.65063068  energy(sigma->0) =      -93.65063068


--------------------------------------------------------------------------------------------------------




--------------------------------------- Iteration      1(   9)  ---------------------------------------


    POTLOK:  cpu time      0.0488: real time      0.0488
    SETDIJ:  cpu time      0.0041: real time      0.0041
    TRIAL :  cpu time      3.8791: real time      3.8822
    CORREC:  cpu time      2.3174: real time      2.3185
    CHARGE:  cpu time      0.0850: real time      0.0850
    --------------------------------------------
      LOOP:  cpu time      6.3472: real time      6.3687

 eigenvalue-minimisations  :     0
 total energy-change (2. order) :-0.6970503E-01  (-0.8762182E-02)
 number of electron      47.9999999 magnetization 
 augmentation part        0.0885312 magnetization 

 Free energy of the ion-electron system (eV)
  ---------------------------------------------------
  alpha Z        PSCENC =        45.44424880
  Ewald energy   TEWEN  =     -1112.25898815
  -Hartree energ DENC   =     -1112.12333092
  -exchange      EXHF   =         0.00000000
  -V(xc)+E(xc)   XCENC  =       158.06225014
  PAW double counting   =     18403.32101658   -18393.67912593
  entropy T*S    EENTRO =        -0.00000000
  eigenvalues    EBANDS =      -402.00705071
  atomic energy  EATOM  =      2319.52064447
  ---------------------------------------------------
  free energy    TOTEN  =       -93.72033570 eV

  energy without entropy =      -93.72033570  energy(sigma->0) =      -93.72033570


--------------------------------------------------------------------------------------------------------




--------------------------------------- Iteration      1(  10)  ---------------------------------------


    POTLOK:  cpu time      0.0497: real time      0.0497
    SETDIJ:  cpu time      0.0041: real time      0.0041
    TRIAL :  cpu time      3.8848: real time      3.8870
    CORREC:  cpu time      2.3120: real time      2.3137
    CHARGE:  cpu time      0.0842: real time      0.0842
    --------------------------------------------
      LOOP:  cpu time      6.3643: real time      6.3685

 eigenvalue-minimisations  :     0
 total energy-change (2. order) :-0.8744909E-02  (-0.1374356E-02)
 number of electron      47.9999999 magnetization 
 augmentation part        0.0873449 magnetization 

 Free energy of the ion-electron system (eV)
  ---------------------------------------------------
  alpha Z        PSCENC =        45.44424880
  Ewald energy   TEWEN  =     -1112.25898815
  -Hartree energ DENC   =     -1112.95118554
  -exchange      EXHF   =         0.00000000
  -V(xc)+E(xc)   XCENC  =       158.08399366
  PAW double counting   =     18422.78365589   -18413.15149760
  entropy T*S    EENTRO =        -0.00000000
  eigenvalues    EBANDS =      -401.19995215
  atomic energy  EATOM  =      2319.52064447
  ---------------------------------------------------
  free energy    TOTEN  =       -93.72908061 eV

  energy without entropy =      -93.72908061  energy(sigma->0) =      -93.72908061


--------------------------------------------------------------------------------------------------------




--------------------------------------- Iteration      1(  11)  ---------------------------------------


    POTLOK:  cpu time      0.0496: real time      0.0496
    SETDIJ:  cpu time      0.0042: real time      0.0042
    TRIAL :  cpu time      3.9118: real time      3.9139
    CORREC:  cpu time      2.3146: real time      2.3157
    CHARGE:  cpu time      0.0845: real time      0.0845
    --------------------------------------------
      LOOP:  cpu time      6.3786: real time      6.3986

 eigenvalue-minimisations  :     0
 total energy-change (2. order) :-0.1373657E-02  (-0.1425144E-03)
 number of electron      47.9999999 magnetization 
 augmentation part        0.0879043 magnetization 

 Free energy of the ion-electron system (eV)
  ---------------------------------------------------
  alpha Z        PSCENC =        45.44424880
  Ewald energy   TEWEN  =     -1112.25898815
  -Hartree energ DENC   =     -1112.75296956
  -exchange      EXHF   =         0.00000000
  -V(xc)+E(xc)   XCENC  =       158.06565047
  PAW double counting   =     18503.66952511   -18494.02808377
  entropy T*S    EENTRO =        -0.00000000
  eigenvalues    EBANDS =      -401.39048165
  atomic energy  EATOM  =      2319.52064447
  ---------------------------------------------------
  free energy    TOTEN  =       -93.73045427 eV

  energy without entropy =      -93.73045427  energy(sigma->0) =      -93.73045427


--------------------------------------------------------------------------------------------------------




--------------------------------------- Iteration      1(  12)  ---------------------------------------


    POTLOK:  cpu time      0.0493: real time      0.0493
    SETDIJ:  cpu time      0.0042: real time      0.0042
    TRIAL :  cpu time      3.8763: real time      3.8789
    CORREC:  cpu time      2.3125: real time      2.3137
    CHARGE:  cpu time      0.0837: real time      0.0837
    --------------------------------------------
      LOOP:  cpu time      6.3404: real time      6.3602

 eigenvalue-minimisations  :     0
 total energy-change (2. order) :-0.1445261E-03  (-0.8969120E-05)
 number of electron      47.9999999 magnetization 
 augmentation part        0.0879292 magnetization 

 Free energy of the ion-electron system (eV)
  ---------------------------------------------------
  alpha Z        PSCENC =        45.44424880
  Ewald energy   TEWEN  =     -1112.25898815
  -Hartree energ DENC   =     -1112.77109582
  -exchange      EXHF   =         0.00000000
  -V(xc)+E(xc)   XCENC  =       158.06499518
  PAW double counting   =     18472.48785695   -18462.84940497
  entropy T*S    EENTRO =        -0.00000000
  eigenvalues    EBANDS =      -401.36885526
  atomic energy  EATOM  =      2319.52064447
  ---------------------------------------------------
  free energy    TOTEN  =       -93.73059880 eV

  energy without entropy =      -93.73059880  energy(sigma->0) =      -93.73059880


--------------------------------------------------------------------------------------------------------




--------------------------------------- Iteration      1(  13)  ---------------------------------------


    POTLOK:  cpu time      0.0486: real time      0.0491
    SETDIJ:  cpu time      0.0041: real time      0.0041
    TRIAL :  cpu time      3.9059: real time      3.9081
    CORREC:  cpu time      2.3409: real time      2.3424
    CHARGE:  cpu time      0.1206: real time      0.1206
    --------------------------------------------
      LOOP:  cpu time      6.4332: real time      6.4543

 eigenvalue-minimisations  :     0
 total energy-change (2. order) :-0.9213069E-05  (-0.1455937E-05)
 number of electron      47.9999999 magnetization 
 augmentation part        0.0879303 magnetization 

 Free energy of the ion-electron system (eV)
  ---------------------------------------------------
  alpha Z        PSCENC =        45.44424880
  Ewald energy   TEWEN  =     -1112.25898815
  -Hartree energ DENC   =     -1112.74061641
  -exchange      EXHF   =         0.00000000
  -V(xc)+E(xc)   XCENC  =       158.06307033
  PAW double counting   =     18475.70092262   -18466.06211515
  entropy T*S    EENTRO =        -0.00000000
  eigenvalues    EBANDS =      -401.39777453
  atomic energy  EATOM  =      2319.52064447
  ---------------------------------------------------
  free energy    TOTEN  =       -93.73060801 eV

  energy without entropy =      -93.73060801  energy(sigma->0) =      -93.73060801


--------------------------------------------------------------------------------------------------------




--------------------------------------- Iteration      1(  14)  ---------------------------------------


    POTLOK:  cpu time      0.0490: real time      0.0490
    SETDIJ:  cpu time      0.0042: real time      0.0042
    TRIAL :  cpu time      3.8899: real time      3.8919
    CORREC:  cpu time      2.3147: real time      2.3158
    CHARGE:  cpu time      0.0849: real time      0.0849
    --------------------------------------------
      LOOP:  cpu time      6.3553: real time      6.3750

 eigenvalue-minimisations  :     0
 total energy-change (2. order) :-0.1336275E-05  (-0.1713362E-06)
 number of electron      47.9999999 magnetization 
 augmentation part        0.0879312 magnetization 

 Free energy of the ion-electron system (eV)
  ---------------------------------------------------
  alpha Z        PSCENC =        45.44424880
  Ewald energy   TEWEN  =     -1112.25898815
  -Hartree energ DENC   =     -1112.74088789
  -exchange      EXHF   =         0.00000000
  -V(xc)+E(xc)   XCENC  =       158.06326310
  PAW double counting   =     18479.55528788   -18469.91647348
  entropy T*S    EENTRO =        -0.00000000
  eigenvalues    EBANDS =      -401.39770408
  atomic energy  EATOM  =      2319.52064447
  ---------------------------------------------------
  free energy    TOTEN  =       -93.73060935 eV

  energy without entropy =      -93.73060935  energy(sigma->0) =      -93.73060935


--------------------------------------------------------------------------------------------------------




--------------------------------------- Iteration      1(  15)  ---------------------------------------


    POTLOK:  cpu time      0.0493: real time      0.0493
    SETDIJ:  cpu time      0.0042: real time      0.0042
    TRIAL :  cpu time      3.9190: real time      3.9214
    CORREC:  cpu time      2.3274: real time      2.3289
    CHARGE:  cpu time      0.0837: real time      0.0838
    --------------------------------------------
      LOOP:  cpu time      6.4134: real time      6.4176

 eigenvalue-minimisations  :     0
 total energy-change (2. order) :-0.1795506E-06  (-0.3226009E-07)
 number of electron      47.9999999 magnetization 
 augmentation part        0.0879349 magnetization 

 Free energy of the ion-electron system (eV)
  ---------------------------------------------------
  alpha Z        PSCENC =        45.44424880
  Ewald energy   TEWEN  =     -1112.25898815
  -Hartree energ DENC   =     -1112.73881398
  -exchange      EXHF   =         0.00000000
  -V(xc)+E(xc)   XCENC  =       158.06312430
  PAW double counting   =     18479.35228631   -18469.71343631
  entropy T*S    EENTRO =        -0.00000000
  eigenvalues    EBANDS =      -401.39967496
  atomic energy  EATOM  =      2319.52064447
  ---------------------------------------------------
  free energy    TOTEN  =       -93.73060953 eV

  energy without entropy =      -93.73060953  energy(sigma->0) =      -93.73060953


--------------------------------------------------------------------------------------------------------




--------------------------------------- Iteration      1(  16)  ---------------------------------------


    POTLOK:  cpu time      0.0486: real time      0.0487
    SETDIJ:  cpu time      0.0041: real time      0.0041
    TRIAL :  cpu time      3.8783: real time      3.8806
    CORREC:  cpu time      2.3254: real time      2.3264
    EDDIAG:  cpu time      2.2258: real time      2.2276
    CHARGE:  cpu time      0.0835: real time      0.0835
    --------------------------------------------
      LOOP:  cpu time      8.5809: real time      8.6021

 eigenvalue-minimisations  :     0
 total energy-change (2. order) :-0.2879642E-07  (-0.1016077E-07)
 number of electron      47.9999999 magnetization 
 augmentation part        0.0879373 magnetization 

 Free energy of the ion-electron system (eV)
  ---------------------------------------------------
  alpha Z        PSCENC =        45.44424880
  Ewald energy   TEWEN  =     -1112.25898815
  -Hartree energ DENC   =     -1112.73959307
  -exchange      EXHF   =         0.00000000
  -V(xc)+E(xc)   XCENC  =       158.06314527
  PAW double counting   =     18478.79799122   -18469.15916189
  entropy T*S    EENTRO =        -0.00000000
  eigenvalues    EBANDS =      -401.39889621
  atomic energy  EATOM  =      2319.52064447
  ---------------------------------------------------
  free energy    TOTEN  =       -93.73060955 eV

  energy without entropy =      -93.73060955  energy(sigma->0) =      -93.73060955


--------------------------------------------------------------------------------------------------------


  average scaling for gradient   1.3934


 average (electrostatic) potential at core
  the test charge radii are     0.5770  0.5955  0.5902  0.4325
  (the norm of the test charge is              1.0000)
[...]
     65      22.3701      0.00000
     66      23.3117      0.00000
     67      23.5366      0.00000
     68      23.6159      0.00000
     69      24.2234      0.00000
     70      24.3907      0.00000
     71      24.7104      0.00000
     72      25.2237      0.00000
     73      25.7280      0.00000
     74      25.7718      0.00000
     75      26.1808      0.00000
     76      26.5792      0.00000
     77      26.8875      0.00000
     78      27.1258      0.00000
     79      27.6993      0.00000
     80      27.9628      0.00000
     81      28.3953      0.00000
     82      28.6366      0.00000
     83      28.9822      0.00000
     84      29.4717      0.00000
     85      29.6704      0.00000
     86      30.1681      0.00000
     87      30.3800      0.00000
     88      30.8374      0.00000
     89      31.2193      0.00000
     90      31.3585      0.00000
     91      31.6070      0.00000
     92      31.7422      0.00000
     93      32.2111      0.00000
     94      32.7571      0.00000
     95      33.0838      0.00000
     96      33.3357      0.00000
     97      33.6913      0.00000
     98      33.8714      0.00000
     99      34.1787      0.00000
    100      34.3631      0.00000
    101      34.6370      0.00000
    102      34.8743      0.00000
    103      35.1827      0.00000
    104      35.7885      0.00000
    105      36.0050      0.00000
    106      36.4705      0.00000
    107      36.6050      0.00000
    108      36.9509      0.00000
    109      37.6429      0.00000
    110      37.9585      0.00000
    111      38.0448      0.00000
    112      38.5133      0.00000
    113      39.0483      0.00000
    114      39.2774      0.00000
    115      39.7953      0.00000
    116      39.9878      0.00000
    117      40.2646      0.00000
    118      40.7699      0.00000
    119      40.9154      0.00000
    120      41.2920      0.00000
    121      41.4472      0.00000
    122      41.8824      0.00000
    123      42.1535      0.00000
    124      42.7771      0.00000
    125      42.8060      0.00000
    126      43.2535      0.00000
    127      43.6118      0.00000
    128      43.7183      0.00000

 k-point    75 :       0.4000    0.4000    0.5000
  band No.  band energies     occupation 
      1     -20.5915      2.00000
      2     -20.5775      2.00000
      3     -17.6016      2.00000
      4     -17.5607      2.00000
      5     -16.2750      2.00000
      6     -16.2651      2.00000
      7      -9.7170      2.00000
      8      -9.6873      2.00000
      9      -8.2898      2.00000
     10      -8.2860      2.00000
     11      -7.4597      2.00000
     12      -7.4383      2.00000
     13      -6.5417      2.00000
     14      -6.5212      2.00000
     15      -5.7485      2.00000
     16      -5.6340      2.00000
     17      -4.9747      2.00000
     18      -4.9533      2.00000
     19      -1.5033      2.00000
     20      -1.4718      2.00000
     21      -1.0095      2.00000
     22      -0.9868      2.00000
     23      -0.7909      2.00000
     24      -0.7285      2.00000
     25       5.4985      0.00000
     26       5.5217      0.00000
     27       7.1709      0.00000
     28       7.5496      0.00000
     29       7.8775      0.00000
     30       8.0396      0.00000
     31       8.3130      0.00000
     32       8.4729      0.00000
     33       8.8487      0.00000
     34       9.0311      0.00000
     35      10.5598      0.00000
     36      10.9772      0.00000
     37      11.2334      0.00000
     38      11.4884      0.00000
     39      11.9777      0.00000
     40      12.2919      0.00000
     41      12.3778      0.00000
     42      12.6904      0.00000
     43      13.2682      0.00000
     44      13.5666      0.00000
     45      13.5885      0.00000
     46      13.8550      0.00000
     47      15.5229      0.00000
     48      15.5848      0.00000
     49      17.0511      0.00000
     50      17.1207      0.00000
     51      17.4040      0.00000
     52      17.7115      0.00000
     53      18.1329      0.00000
     54      18.2797      0.00000
     55      18.4106      0.00000
     56      18.8292      0.00000
     57      19.3252      0.00000
     58      19.6884      0.00000
     59      19.9496      0.00000
     60      20.4846      0.00000
     61      21.4049      0.00000
     62      21.7525      0.00000
     63      22.5403      0.00000
     64      22.6864      0.00000
     65      22.7373      0.00000
     66      23.6017      0.00000
     67      23.9195      0.00000
     68      23.9730      0.00000
     69      24.4005      0.00000
     70      24.5391      0.00000
     71      25.0325      0.00000
     72      25.5344      0.00000
     73      25.5741      0.00000
     74      25.6863      0.00000
     75      25.7875      0.00000
     76      26.1641      0.00000
     77      26.7552      0.00000
     78      26.9376      0.00000
     79      26.9550      0.00000
     80      27.3153      0.00000
     81      28.1386      0.00000
     82      28.1669      0.00000
     83      28.7377      0.00000
     84      29.3126      0.00000
     85      29.4732      0.00000
     86      29.6214      0.00000
     87      30.7401      0.00000
     88      30.7815      0.00000
     89      31.0843      0.00000
     90      31.0918      0.00000
     91      31.8133      0.00000
     92      32.0378      0.00000
     93      32.3633      0.00000
     94      32.7566      0.00000
     95      33.1413      0.00000
     96      33.1773      0.00000
     97      33.4082      0.00000
     98      33.4704      0.00000
     99      33.9344      0.00000
    100      34.3318      0.00000
    101      34.8220      0.00000
    102      34.9257      0.00000
    103      35.2362      0.00000
    104      35.6278      0.00000
    105      35.9459      0.00000
    106      36.8253      0.00000
    107      37.1771      0.00000
    108      37.5030      0.00000
    109      37.6160      0.00000
    110      38.2802      0.00000
    111      38.3128      0.00000
    112      39.3764      0.00000
    113      39.4593      0.00000
    114      39.8372      0.00000
    115      39.9864      0.00000
    116      40.2782      0.00000
    117      40.3122      0.00000
    118      40.4287      0.00000
    119      40.7482      0.00000
    120      40.7772      0.00000
    121      41.2312      0.00000
    122      41.7948      0.00000
    123      41.9695      0.00000
    124      42.0042      0.00000
    125      42.3480      0.00000
    126      42.9770      0.00000
    127      43.1535      0.00000
    128      43.3059      0.00000

 k-point    76 :      -0.4000    0.4000    0.5000
  band No.  band energies     occupation 
      1     -20.5915      2.00000
      2     -20.5775      2.00000
      3     -17.6016      2.00000
      4     -17.5607      2.00000
      5     -16.2750      2.00000
      6     -16.2651      2.00000
      7      -9.7170      2.00000
      8      -9.6873      2.00000
      9      -8.2897      2.00000
     10      -8.2860      2.00000
     11      -7.4597      2.00000
     12      -7.4383      2.00000
     13      -6.5417      2.00000
     14      -6.5212      2.00000
     15      -5.7484      2.00000
     16      -5.6340      2.00000
     17      -4.9747      2.00000
     18      -4.9533      2.00000
     19      -1.5033      2.00000
     20      -1.4718      2.00000
     21      -1.0095      2.00000
     22      -0.9868      2.00000
     23      -0.7909      2.00000
     24      -0.7285      2.00000
     25       5.4985      0.00000
     26       5.5217      0.00000
     27       7.1709      0.00000
     28       7.5496      0.00000
     29       7.8775      0.00000
     30       8.0396      0.00000
     31       8.3130      0.00000
     32       8.4729      0.00000
     33       8.8487      0.00000
     34       9.0311      0.00000
     35      10.5598      0.00000
     36      10.9772      0.00000
     37      11.2334      0.00000
     38      11.4884      0.00000
     39      11.9777      0.00000
     40      12.2919      0.00000
     41      12.3778      0.00000
     42      12.6904      0.00000
     43      13.2682      0.00000
     44      13.5666      0.00000
     45      13.5885      0.00000
     46      13.8550      0.00000
     47      15.5229      0.00000
     48      15.5848      0.00000
     49      17.0511      0.00000
     50      17.1207      0.00000
     51      17.4040      0.00000
     52      17.7115      0.00000
     53      18.1329      0.00000
     54      18.2797      0.00000
     55      18.4106      0.00000
     56      18.8292      0.00000
     57      19.3252      0.00000
     58      19.6884      0.00000
     59      19.9496      0.00000
     60      20.4846      0.00000
     61      21.4049      0.00000
     62      21.7525      0.00000
     63      22.5403      0.00000
     64      22.6864      0.00000
     65      22.7373      0.00000
     66      23.6017      0.00000
     67      23.9195      0.00000
     68      23.9730      0.00000
     69      24.4005      0.00000
     70      24.5391      0.00000
     71      25.0325      0.00000
     72      25.5344      0.00000
     73      25.5741      0.00000
     74      25.6863      0.00000
     75      25.7875      0.00000
     76      26.1641      0.00000
     77      26.7552      0.00000
     78      26.9376      0.00000
     79      26.9550      0.00000
     80      27.3153      0.00000
     81      28.1386      0.00000
     82      28.1669      0.00000
     83      28.7377      0.00000
     84      29.3126      0.00000
     85      29.4732      0.00000
     86      29.6214      0.00000
     87      30.7401      0.00000
     88      30.7815      0.00000
     89      31.0843      0.00000
     90      31.0918      0.00000
     91      31.8133      0.00000
     92      32.0378      0.00000
     93      32.3633      0.00000
     94      32.7566      0.00000
     95      33.1413      0.00000
     96      33.1773      0.00000
     97      33.4082      0.00000
     98      33.4703      0.00000
     99      33.9344      0.00000
    100      34.3318      0.00000
    101      34.8220      0.00000
    102      34.9257      0.00000
    103      35.2362      0.00000
    104      35.6278      0.00000
    105      35.9459      0.00000
    106      36.8253      0.00000
    107      37.1771      0.00000
    108      37.5030      0.00000
    109      37.6160      0.00000
    110      38.2802      0.00000
    111      38.3128      0.00000
    112      39.3764      0.00000
    113      39.4593      0.00000
    114      39.8372      0.00000
    115      39.9864      0.00000
    116      40.2782      0.00000
    117      40.3122      0.00000
    118      40.4287      0.00000
    119      40.7482      0.00000
    120      40.7772      0.00000
    121      41.2312      0.00000
    122      41.7948      0.00000
    123      41.9695      0.00000
    124      42.0041      0.00000
    125      42.3480      0.00000
    126      42.9803      0.00000
    127      43.1530      0.00000
    128      43.3108      0.00000


--------------------------------------------------------------------------------------------------------


 soft charge-density along one line, spin component           1
         0         1         2         3         4         5         6         7         8         9
 total charge-density along one line

 pseudopotential strength for first ion, spin component:           1
 12.595  21.193  -0.000  -0.000  -0.000  -0.000  -0.001  -0.000
 21.193  35.661  -0.000  -0.001  -0.000  -0.000  -0.001  -0.000
 -0.000  -0.000  -3.243   0.000   0.000  -5.810   0.000   0.000
 -0.000  -0.001   0.000  -3.243   0.000   0.000  -5.810   0.000
 -0.000  -0.000   0.000   0.000  -3.243   0.000   0.000  -5.810
 -0.000  -0.000  -5.810   0.000   0.000 -10.386   0.000   0.000
 -0.001  -0.001   0.000  -5.810   0.000   0.000 -10.388   0.000
 -0.000  -0.000   0.000   0.000  -5.810   0.000   0.000 -10.386
 total augmentation occupancy for first ion, spin component:           1
  7.184  -2.565  -0.000   0.609  -0.000   0.000  -0.320   0.000
 -2.565   1.014   0.000  -0.336   0.000  -0.000   0.179  -0.000
 -0.000   0.000   4.612  -0.000   2.089  -1.424   0.000  -0.829
  0.609  -0.336  -0.000   7.787  -0.000   0.000  -2.777   0.000
 -0.000   0.000   2.089  -0.000   4.612  -0.829   0.000  -1.424
  0.000  -0.000  -1.424   0.000  -0.829   0.460  -0.000   0.319
 -0.320   0.179   0.000  -2.777   0.000  -0.000   1.032  -0.000
  0.000  -0.000  -0.829   0.000  -1.424   0.319  -0.000   0.460


------------------------ aborting loop because EDIFF is reached ----------------------------------------


    FORLOC:  cpu time      0.0039: real time      0.0039
    FORNL :  cpu time      0.7514: real time      0.7519
    FORCOR:  cpu time      0.0520: real time      0.0526
    OFIELD:  cpu time      0.0028: real time      0.0028
 WARNING: Using user supplied parameters
     VDW_S8 = 1.682
     VDW_SR = 1.094
     because the xc functional is not supported. Required parameters not
     defined in the INCAR file will be replaced with PBE defaults ones.


 ---------------------------------------------------------------------------------------------

         DFTD3 V3.0 Rev 1        
 IVDW         = 11
 DF unknown   
 parameters
 VDW_S6       =    1.0000
 VDW_S8       =    1.6820
 VDW_SR       =    1.0940
 rs18     =    1.0000
 alpha6   =   14.0000
 alpha8   =   16.0000
 k1-k3    =   16.0000    1.3333   -4.0000
 VDW_RADIUS   =   50.2022 A
 VDW_CNRADIUS =   21.1671 A
 Edisp (eV)   -1.45643

 E6    (eV) :    -0.7388
 E8    (eV) :    -0.7176
 % E8        : 49.27
    FORVDW:  cpu time      0.2414: real time      0.2451

 VOLUME and BASIS-vectors are now :
 -----------------------------------------------------------------------------
  energy-cutoff  :     1000.00
  volume of cell :      145.06
      direct lattice vectors                 reciprocal lattice vectors
     5.565000000  0.000000000  0.000000000     0.179694519  0.000000000  0.000000000
     0.000000000  5.565000000  0.000000000     0.000000000  0.179694519  0.000000000
     0.000000000  0.000000000  4.684000000     0.000000000  0.000000000  0.213492741

  length of vectors
     5.565000000  5.565000000  4.684000000     0.179694519  0.179694519  0.213492741


 FORCES acting on ions:
    Electron-Ion                     Ewald-Force                    Non-Local-Force
 -----------------------------------------------------------------------------------------------
   -.255E-03 0.507E-05 0.338E+02   0.252E-03 0.254E-06 -.337E+02   -.315E-04 -.371E-04 -.179E+00
   -.143E-03 0.166E-03 -.338E+02   0.164E-03 -.164E-03 0.337E+02   -.427E-05 -.912E-05 0.179E+00
   0.249E-04 0.328E-03 -.163E+03   -.117E-03 -.397E-03 0.208E+03   0.107E-03 0.118E-03 -.454E+02
   -.142E-03 -.276E-03 0.163E+03   0.126E-03 0.294E-03 -.208E+03   0.304E-04 0.109E-04 0.454E+02
   -.797E+02 -.797E+02 0.563E+02   0.830E+02 0.830E+02 -.581E+02   -.320E+01 -.320E+01 0.165E+01
   0.797E+02 0.797E+02 0.563E+02   -.830E+02 -.830E+02 -.581E+02   0.320E+01 0.320E+01 0.165E+01
   -.797E+02 0.797E+02 -.563E+02   0.830E+02 -.830E+02 0.581E+02   -.320E+01 0.320E+01 -.165E+01
   0.797E+02 -.797E+02 -.563E+02   -.830E+02 0.830E+02 0.581E+02   0.320E+01 -.320E+01 -.165E+01
   -.321E+02 -.321E+02 -.226E+02   0.367E+02 0.367E+02 0.261E+02   -.464E+01 -.464E+01 -.359E+01
   0.321E+02 0.321E+02 -.226E+02   -.367E+02 -.367E+02 0.261E+02   0.464E+01 0.464E+01 -.359E+01
   -.321E+02 0.321E+02 0.226E+02   0.367E+02 -.367E+02 -.261E+02   -.464E+01 0.464E+01 0.359E+01
   0.321E+02 -.321E+02 0.226E+02   -.367E+02 0.367E+02 -.261E+02   0.464E+01 -.464E+01 0.359E+01
   -.101E+02 -.101E+02 0.560E+02   0.101E+02 0.101E+02 -.635E+02   0.122E-02 0.114E-02 0.754E+01
   0.101E+02 0.101E+02 0.560E+02   -.101E+02 -.101E+02 -.635E+02   -.120E-02 -.109E-02 0.754E+01
   -.101E+02 0.101E+02 -.560E+02   0.101E+02 -.101E+02 0.635E+02   0.121E-02 -.112E-02 -.754E+01
   0.101E+02 -.101E+02 -.560E+02   -.101E+02 0.101E+02 0.635E+02   -.120E-02 0.111E-02 -.754E+01
 -----------------------------------------------------------------------------------------------
   0.453E-04 0.605E-04 -.815E-06   -.604E-13 0.320E-13 0.121E-12   -.450E-04 0.525E-04 0.377E-06


 POSITION                                       TOTAL-FORCE (eV/Angst)
 -----------------------------------------------------------------------------------
      0.00000      2.37694      1.52726        -0.000033     -0.000036     -0.057936
      2.78250      5.15944      3.15674         0.000016     -0.000012      0.057922
      5.56500      2.37694      2.80034         0.000015      0.000041      0.186523
      2.78250      5.15944      1.88366         0.000015      0.000023     -0.186533
      0.81701      3.19394      0.82848         0.155515      0.155524     -0.127391
      4.74799      1.55995      0.82848        -0.155629     -0.155642     -0.127446
      3.59951      4.34244      3.85552         0.155527     -0.155537      0.127390
      1.96549      0.41144      3.85552        -0.155600      0.155609      0.127436
      1.44738      3.82433      1.32525        -0.055516     -0.055537     -0.078569
      4.11762      0.92955      1.32525         0.055630      0.055622     -0.078607
      4.22988      3.71205      3.35875        -0.055554      0.055545      0.078583
      1.33512      1.04183      3.35875         0.055586     -0.055607      0.078602
      0.81112      3.18806      4.49318         0.043601      0.043606      0.092334
      4.75388      1.56582      4.49317        -0.043584     -0.043586      0.092424
      3.59362      4.34832      0.19083         0.043600     -0.043604     -0.092351
      1.97138      0.40556      0.19082        -0.043589      0.043592     -0.092381
 -----------------------------------------------------------------------------------
    total drift:                                0.000000      0.000113     -0.000000


--------------------------------------------------------------------------------------------------------



  FREE ENERGIE OF THE ION-ELECTRON SYSTEM (eV)
  ---------------------------------------------------
  free  energy   TOTEN  =       -95.18704136 eV

  energy  without entropy=      -95.18704136  energy(sigma->0) =      -95.18704136



--------------------------------------------------------------------------------------------------------


    POTLOK:  cpu time      0.0626: real time      0.0626


--------------------------------------------------------------------------------------------------------


 stress matrix after NEB project (eV)
     -1.72791     -0.00000     -0.00000
     -0.00000     -1.72792     -0.00000
     -0.00000     -0.00000     -1.72354
  FORCES: max atom, RMS     0.254337    0.164622
  FORCE total and by dimension    0.658490    0.186533
  Stress total and by dimension    2.990314    1.727915
     LOOP+:  cpu time    564.3475: real time    564.8727
    4ORBIT:  cpu time      0.0000: real time      0.0000

 total amount of memory used by VASP MPI-rank0   160409. kBytes
=======================================================================

   base      :      30000. kBytes
   nonl-proj :     103448. kBytes
   fftplans  :       2999. kBytes
   grid      :       4327. kBytes
   one-center:         24. kBytes
   wavefun   :      19611. kBytes

  
  
 General timing and accounting informations for this job:
 ========================================================
  
                  Total CPU time used (sec):      591.519
                            User time (sec):      589.872
                          System time (sec):        1.647
                         Elapsed time (sec):      595.535
  
                   Maximum memory used (kb):      404776.
                   Average memory used (kb):          N/A
  
                          Minor page faults:        62211
                          Major page faults:         1219
                 Voluntary context switches:         6371
