 vasp.6.4.1 05Apr23 (build Jun  6 2023 14:36:51) complex                         
 executed on        HPECrayEX_GCC date 2024.08.20  14:57:32
 running  256 mpi-ranks, with    1 threads/rank, on    2 nodes
 distrk:  each k-point on  256 cores,    1 groups
 distr:  one band on NCORE=   2 cores,  128 groups


--------------------------------------------------------------------------------------------------------


 INCAR:
   ALGO = Conjugate
   NCORE = 2
   PREC = Accurate
   EDIFF = 1E-7
   ENCUT = 1000
   ISMEAR = 0
   SIGMA = 0.01
   ISIF = 0
   SYMPREC = 1E-7
   GGA = RP
   IVDW = 11
   LWAVE = .FALSE.
   LCHARGE = .FALSE.
   LWAVE = .FALSE.
   LCHARGE = .FALSE.

 POTCAR:    PAW_PBE C_h 06Feb2004                 
 POTCAR:    PAW_PBE O_h 06Feb2004                 
 POTCAR:    PAW_PBE N_h 06Feb2004                 
 POTCAR:    PAW_PBE H_h 06Feb2004                 
 POTCAR:    PAW_PBE C_h 06Feb2004                 
   VRHFIN =C: s2p2                                                                                  
   LEXCH  = PE                                                                                      
   EATOM  =   147.1560 eV,   10.8157 Ry                                                             
                                                                                                    
   TITEL  = PAW_PBE C_h 06Feb2004                                                                   
   LULTRA =        F    use ultrasoft PP ?                                                          
   IUNSCR =        1    unscreen: 0-lin 1-nonlin 2-no                                               
   RPACOR =    0.800    partial core radius                                                         
   POMASS =   12.011; ZVAL   =    4.000    mass and valenz                                          
   RCORE  =    1.100    outmost cutoff radius                                                       
   RWIGS  =    1.630; RWIGS  =    0.863    wigner-seitz radius (au A)                               
   ENMAX  =  700.000; ENMIN  =  500.000 eV                                                          
   ICORE  =        2    local potential                                                             
   LCOR   =        T    correct aug charges                                                         
   LPAW   =        T    paw PP                                                                      
   EAUG   =  946.768                                                                                
   DEXC   =    0.000                                                                                
   RMAX   =    1.128    core radius for proj-oper                                                   
   RAUG   =    1.300    factor for augmentation sphere                                              
   RDEP   =    1.162    radius for radial grids                                                     
   RDEPT  =    1.088    core radius for aug-charge                                                  
                                                                                                    
   Atomic configuration                                                                             
    4 entries                                                                                       
     n  l   j            E        occ.                                                              
     1  0  0.50      -273.3789   2.0000                                                             
     2  0  0.50       -13.7508   2.0000                                                             
     2  1  0.50        -5.2854   2.0000                                                             
     3  2  1.50        -5.4423   0.0000                                                             
   Description                                                                                      
     l       E           TYP  RCUT    TYP  RCUT                                                     
     0    -13.7508458     23  1.100                                                                 
     0     -8.2022199     23  1.100                                                                 
     1     -5.2854383     23  1.100                                                                 
     1      1.1560700     23  1.100                                                                 
     2     -5.4423304      7  1.100                                                                 
  local pseudopotential read in
  partial core-charges read in
  partial kinetic energy density read in
  atomic valenz-charges read in
  non local Contribution for L=           0  read in
    real space projection operators read in
  non local Contribution for L=           0  read in
    real space projection operators read in
  non local Contribution for L=           1  read in
    real space projection operators read in
  non local Contribution for L=           1  read in
    real space projection operators read in
    PAW grid and wavefunctions read in

   number of l-projection  operators is LMAX  =           4
   number of lm-projection operators is LMMAX =           8

 POTCAR:    PAW_PBE O_h 06Feb2004                 
   VRHFIN =O: s2p4                                                                                  
   LEXCH  = PE                                                                                      
   EATOM  =   432.3788 eV,   31.7789 Ry                                                             
                                                                                                    
   TITEL  = PAW_PBE O_h 06Feb2004                                                                   
   LULTRA =        F    use ultrasoft PP ?                                                          
   IUNSCR =        1    unscreen: 0-lin 1-nonlin 2-no                                               
   RPACOR =    0.800    partial core radius                                                         
   POMASS =   16.000; ZVAL   =    6.000    mass and valenz                                          
   RCORE  =    1.100    outmost cutoff radius                                                       
   RWIGS  =    1.400; RWIGS  =    0.741    wigner-seitz radius (au A)                               
   ENMAX  =  700.000; ENMIN  =  500.000 eV                                                          
   ICORE  =        2    local potential                                                             
   LCOR   =        T    correct aug charges                                                         
   LPAW   =        T    paw PP                                                                      
   EAUG   =  888.804                                                                                
   DEXC   =    0.000                                                                                
   RMAX   =    1.128    core radius for proj-oper                                                   
   RAUG   =    1.300    factor for augmentation sphere                                              
   RDEP   =    1.125    radius for radial grids                                                     
   RDEPT  =    1.088    core radius for aug-charge                                                  
                                                                                                    
   Atomic configuration                                                                             
    4 entries                                                                                       
     n  l   j            E        occ.                                                              
     1  0  0.50      -514.6923   2.0000                                                             
     2  0  0.50       -23.9615   2.0000                                                             
     2  1  0.50        -9.0305   4.0000                                                             
     3  2  1.50        -9.5241   0.0000                                                             
   Description                                                                                      
     l       E           TYP  RCUT    TYP  RCUT                                                     
     0    -23.9615319     23  1.100                                                                 
     0    -25.3221145     23  1.100                                                                 
     1     -9.0304911     23  1.100                                                                 
     1     -5.4802209     23  1.100                                                                 
     2     -9.5240782      7  1.100                                                                 
  local pseudopotential read in
  partial core-charges read in
  partial kinetic energy density read in
  atomic valenz-charges read in
  non local Contribution for L=           0  read in
    real space projection operators read in
  non local Contribution for L=           0  read in
    real space projection operators read in
  non local Contribution for L=           1  read in
    real space projection operators read in
  non local Contribution for L=           1  read in
    real space projection operators read in
    PAW grid and wavefunctions read in

   number of l-projection  operators is LMAX  =           4
   number of lm-projection operators is LMMAX =           8

 POTCAR:    PAW_PBE N_h 06Feb2004                 
   VRHFIN =N: s2p3                                                                                  
   LEXCH  = PE                                                                                      
   EATOM  =   264.5486 eV,   19.4438 Ry                                                             
                                                                                                    
   TITEL  = PAW_PBE N_h 06Feb2004                                                                   
   LULTRA =        F    use ultrasoft PP ?                                                          
   IUNSCR =        1    unscreen: 0-lin 1-nonlin 2-no                                               
   RPACOR =    0.800    partial core radius                                                         
   POMASS =   14.001; ZVAL   =    5.000    mass and valenz                                          
   RCORE  =    1.100    outmost cutoff radius                                                       
   RWIGS  =    1.480; RWIGS  =    0.783    wigner-seitz radius (au A)                               
   ENMAX  =  700.000; ENMIN  =  500.000 eV                                                          
   ICORE  =        2    local potential                                                             
   LCOR   =        T    correct aug charges                                                         
   LPAW   =        T    paw PP                                                                      
   EAUG   =  904.640                                                                                
   DEXC   =    0.000                                                                                
   RMAX   =    1.127    core radius for proj-oper                                                   
   RAUG   =    1.300    factor for augmentation sphere                                              
   RDEP   =    1.115    radius for radial grids                                                     
   RDEPT  =    1.106    core radius for aug-charge                                                  
                                                                                                    
   Atomic configuration                                                                             
    4 entries                                                                                       
     n  l   j            E        occ.                                                              
     1  0  0.50      -384.7179   2.0000                                                             
     2  0  0.50       -18.5828   2.0000                                                             
     2  1  0.50        -7.0898   3.0000                                                             
     3  2  1.50        -6.8029   0.0000                                                             
   Description                                                                                      
     l       E           TYP  RCUT    TYP  RCUT                                                     
     0    -18.5828117     23  1.100                                                                 
     0    -15.0750597     23  1.100                                                                 
     1     -7.0897851     23  1.100                                                                 
     1     -1.9663412     23  1.100                                                                 
     2     -6.8029130      7  1.100                                                                 
  local pseudopotential read in
  partial core-charges read in
  partial kinetic energy density read in
  kinetic energy density of atom read in
  atomic valenz-charges read in
  non local Contribution for L=           0  read in
    real space projection operators read in
  non local Contribution for L=           0  read in
    real space projection operators read in
  non local Contribution for L=           1  read in
    real space projection operators read in
  non local Contribution for L=           1  read in
    real space projection operators read in
    PAW grid and wavefunctions read in

   number of l-projection  operators is LMAX  =           4
   number of lm-projection operators is LMMAX =           8

 POTCAR:    PAW_PBE H_h 06Feb2004                 
   VRHFIN =H: ultrasoft test                                                                        
   LEXCH  = PE                                                                                      
   EATOM  =    12.4884 eV,    0.9179 Ry                                                             
                                                                                                    
   TITEL  = PAW_PBE H_h 06Feb2004                                                                   
   LULTRA =        F    use ultrasoft PP ?                                                          
   IUNSCR =        0    unscreen: 0-lin 1-nonlin 2-no                                               
   RPACOR =    0.000    partial core radius                                                         
   POMASS =    1.000; ZVAL   =    1.000    mass and valenz                                          
   RCORE  =    0.800    outmost cutoff radius                                                       
   RWIGS  =    0.700; RWIGS  =    0.370    wigner-seitz radius (au A)                               
   ENMAX  =  700.000; ENMIN  =  350.000 eV                                                          
   RCLOC  =    0.701    cutoff for local pot                                                        
   LCOR   =        T    correct aug charges                                                         
   LPAW   =        T    paw PP                                                                      
   EAUG   = 1000.000                                                                                
   RMAX   =    0.819    core radius for proj-oper                                                   
   RAUG   =    1.000    factor for augmentation sphere                                              
   RDEP   =    0.817    radius for radial grids                                                     
   RDEPT  =    0.817    core radius for aug-charge                                                  
                                                                                                    
   Atomic configuration                                                                             
    2 entries                                                                                       
     n  l   j            E        occ.                                                              
     1  0  0.50        -6.4927   1.0000                                                             
     2  1  0.50        -3.4015   0.0000                                                             
   Description                                                                                      
     l       E           TYP  RCUT    TYP  RCUT                                                     
     0     -6.4927493     23  0.800                                                                 
     0      6.8029130     23  0.800                                                                 
     1     -6.8029130     23  0.800                                                                 
  local pseudopotential read in
  atomic valenz-charges read in
  non local Contribution for L=           0  read in
    real space projection operators read in
  non local Contribution for L=           0  read in
    real space projection operators read in
  non local Contribution for L=           1  read in
    real space projection operators read in
    PAW grid and wavefunctions read in

   number of l-projection  operators is LMAX  =           3
   number of lm-projection operators is LMMAX =           5

 -----------------------------------------------------------------------------
|                                                                             |
|               ----> ADVICE to this user running VASP <----                  |
|                                                                             |
|     You enforced a specific xc type in the INCAR file but a different       |
|     type was found in the POTCAR file.                                      |
|     I HOPE YOU KNOW WHAT YOU ARE DOING!                                     |
|                                                                             |
 -----------------------------------------------------------------------------

  PAW_PBE C_h 06Feb2004                 :
 energy of atom  1       EATOM= -147.1560
 kinetic energy error for atom=    0.0031 (will be added to EATOM!!)
  PAW_PBE O_h 06Feb2004                 :
 energy of atom  2       EATOM= -432.3788
 kinetic energy error for atom=    0.0171 (will be added to EATOM!!)
  PAW_PBE N_h 06Feb2004                 :
 energy of atom  3       EATOM= -264.5486
 kinetic energy error for atom=    0.0081 (will be added to EATOM!!)
  PAW_PBE H_h 06Feb2004                 :
 energy of atom  4       EATOM=  -12.4884
 kinetic energy error for atom=    0.0006 (will be added to EATOM!!)


 POSCAR:  C  O  N  H
  positions in cartesian coordinates
  No initial velocities read in
 exchange correlation table for  LEXCH =        9
   RHO(1)=    0.500       N(1)  =     2000
   RHO(2)=  100.500       N(2)  =     4000

 VTST: version 4.1, (05/19/21)

 CHAIN: initializing optimizer
 
 OPT: Using VASP Dynamics algorithm
 CHAIN: Read ICHAIN            0

 POSCAR:  C  O  N  H
  positions in cartesian coordinates
  No initial velocities read in



--------------------------------------------------------------------------------------------------------


 ion  position               nearest neighbor table
   1  0.000  0.427  0.326-   3 1.27   5 1.35   6 1.35
   2  0.500  0.927  0.674-   4 1.27   8 1.35   7 1.35
   3  1.000  0.427  0.598-   1 1.27
   4  0.500  0.927  0.402-   2 1.27
   5  0.147  0.574  0.177-  13 1.02   9 1.02   1 1.35
   6  0.853  0.280  0.177-  14 1.02  10 1.02   1 1.35
   7  0.647  0.780  0.823-  15 1.02  11 1.02   2 1.35
   8  0.353  0.074  0.823-  16 1.02  12 1.02   2 1.35
   9  0.260  0.687  0.283-   5 1.02
  10  0.740  0.167  0.283-   6 1.02
  11  0.760  0.667  0.717-   7 1.02
  12  0.240  0.187  0.717-   8 1.02
  13  0.146  0.573  0.959-   5 1.02
  14  0.854  0.281  0.959-   6 1.02
  15  0.646  0.781  0.041-   7 1.02
  16  0.354  0.073  0.041-   8 1.02

  LATTYP: Found a simple tetragonal cell.
 ALAT       =     5.5650000000
 C/A-ratio  =     0.8416891285
  
  Lattice vectors:
  
 A1 = (   5.5650000000,   0.0000000000,   0.0000000000)
 A2 = (   0.0000000000,   5.5650000000,   0.0000000000)
 A3 = (   0.0000000000,   0.0000000000,   4.6840000000)


Analysis of symmetry for initial positions (statically):
=====================================================================
 Subroutine PRICEL returns:
 Original cell was already a primitive cell.
 

 Routine SETGRP: Setting up the symmetry group for a 
 simple tetragonal supercell.


 Subroutine GETGRP returns: Found  1 space group operations
 (whereof  1 operations were pure point group operations)
 out of a pool of 16 trial point group operations.


The static configuration has the point symmetry C_1 .


Analysis of symmetry for dynamics (positions and initial velocities):
=====================================================================
 Subroutine PRICEL returns:
 Original cell was already a primitive cell.
 

 Routine SETGRP: Setting up the symmetry group for a 
 simple tetragonal supercell.


 Subroutine GETGRP returns: Found  1 space group operations
 (whereof  1 operations were pure point group operations)
 out of a pool of 16 trial point group operations.


The dynamic configuration has the point symmetry C_1 .


 Subroutine INISYM returns: Found  1 space group operations
 (whereof  1 operations are pure point group operations),
 and found     1 'primitive' translations


----------------------------------------------------------------------------------------

                                     Primitive cell                                     

  volume of cell :     145.0598

  direct lattice vectors                    reciprocal lattice vectors
     5.565000000  0.000000000  0.000000000     0.179694519  0.000000000  0.000000000
     0.000000000  5.565000000  0.000000000     0.000000000  0.179694519  0.000000000
     0.000000000  0.000000000  4.684000000     0.000000000  0.000000000  0.213492741

  length of vectors
     5.565000000  5.565000000  4.684000000     0.179694519  0.179694519  0.213492741

  position of ions in fractional coordinates (direct lattice)
     0.000000146  0.427123573  0.326058672
     0.499999930  0.927122909  0.673941525
     0.999999854  0.427123350  0.597852280
     0.499999924  0.927123013  0.402147921
     0.146812264  0.573933227  0.176875004
     0.853187842  0.280313828  0.176875281
     0.646812221  0.780313118  0.823124997
     0.353187759  0.073932713  0.823124742
     0.260085855  0.687210944  0.282931726
     0.739913749  0.167035376  0.282931867
     0.760085891  0.667035345  0.717067948
     0.239913922  0.187210835  0.717067878
     0.145753410  0.572876866  0.959260297
     0.854246226  0.281369506  0.959260096
     0.645753561  0.781369328  0.040739795
     0.354246123  0.072876987  0.040739703

  ion indices of the primitive-cell ions
   primitive index   ion index
                 1           1
                 2           2
                 3           3
                 4           4
                 5           5
                 6           6
                 7           7
                 8           8
                 9           9
                10          10
                11          11
                12          12
                13          13
                14          14
                15          15
                16          16

----------------------------------------------------------------------------------------



 KPOINTS: auto                                    

Automatic generation of k-mesh.
 Grid dimensions read from file:
 generate k-points for:    5    5    6

 Generating k-lattice:

  Cartesian coordinates                     Fractional coordinates (reciprocal lattice)
     0.035938904  0.000000000  0.000000000     0.200000000  0.000000000  0.000000000
     0.000000000  0.035938904  0.000000000     0.000000000  0.200000000  0.000000000
     0.000000000  0.000000000  0.035582124     0.000000000  0.000000000  0.166666667

  Length of vectors
     0.035938904  0.035938904  0.035582124

  Shift w.r.t. Gamma in fractional coordinates (k-lattice)
     0.000000000  0.000000000  0.000000000

 
 Subroutine IBZKPT returns following result:
 ===========================================
 
 Found     76 irreducible k-points:
 
 Following reciprocal coordinates:
            Coordinates               Weight
  0.000000  0.000000  0.000000      1.000000
  0.200000  0.000000  0.000000      2.000000
  0.000000  0.200000  0.000000      2.000000
  0.400000  0.000000  0.000000      2.000000
  0.000000  0.400000  0.000000      2.000000
  0.200000  0.200000  0.000000      2.000000
 -0.200000  0.200000  0.000000      2.000000
  0.400000  0.200000  0.000000      2.000000
 -0.200000  0.400000  0.000000      2.000000
 -0.400000  0.200000  0.000000      2.000000
  0.200000  0.400000  0.000000      2.000000
  0.400000  0.400000  0.000000      2.000000
 -0.400000  0.400000  0.000000      2.000000
  0.000000  0.000000  0.166667      2.000000
  0.200000  0.000000  0.166667      2.000000
  0.000000  0.200000  0.166667      2.000000
 -0.200000  0.000000  0.166667      2.000000
  0.000000 -0.200000  0.166667      2.000000
  0.400000  0.000000  0.166667      2.000000
  0.000000  0.400000  0.166667      2.000000
 -0.400000  0.000000  0.166667      2.000000
  0.000000 -0.400000  0.166667      2.000000
  0.200000  0.200000  0.166667      2.000000
 -0.200000  0.200000  0.166667      2.000000
 -0.200000 -0.200000  0.166667      2.000000
  0.200000 -0.200000  0.166667      2.000000
  0.400000  0.200000  0.166667      2.000000
 -0.200000  0.400000  0.166667      2.000000
 -0.400000 -0.200000  0.166667      2.000000
  0.200000 -0.400000  0.166667      2.000000
 -0.400000  0.200000 -0.166667      2.000000
  0.200000  0.400000 -0.166667      2.000000
  0.400000 -0.200000 -0.166667      2.000000
 -0.200000 -0.400000 -0.166667      2.000000
  0.400000  0.400000  0.166667      2.000000
 -0.400000  0.400000  0.166667      2.000000
 -0.400000 -0.400000  0.166667      2.000000
  0.400000 -0.400000  0.166667      2.000000
  0.000000  0.000000  0.333333      2.000000
  0.200000  0.000000  0.333333      2.000000
  0.000000  0.200000  0.333333      2.000000
 -0.200000  0.000000  0.333333      2.000000
  0.000000 -0.200000  0.333333      2.000000
  0.400000  0.000000  0.333333      2.000000
  0.000000  0.400000  0.333333      2.000000
 -0.400000  0.000000  0.333333      2.000000
  0.000000 -0.400000  0.333333      2.000000
  0.200000  0.200000  0.333333      2.000000
 -0.200000  0.200000  0.333333      2.000000
 -0.200000 -0.200000  0.333333      2.000000
  0.200000 -0.200000  0.333333      2.000000
  0.400000  0.200000  0.333333      2.000000
 -0.200000  0.400000  0.333333      2.000000
 -0.400000 -0.200000  0.333333      2.000000
  0.200000 -0.400000  0.333333      2.000000
 -0.400000  0.200000 -0.333333      2.000000
  0.200000  0.400000 -0.333333      2.000000
  0.400000 -0.200000 -0.333333      2.000000
 -0.200000 -0.400000 -0.333333      2.000000
  0.400000  0.400000  0.333333      2.000000
 -0.400000  0.400000  0.333333      2.000000
 -0.400000 -0.400000  0.333333      2.000000
  0.400000 -0.400000  0.333333      2.000000
  0.000000  0.000000  0.500000      1.000000
  0.200000  0.000000  0.500000      2.000000
  0.000000  0.200000  0.500000      2.000000
  0.400000  0.000000  0.500000      2.000000
  0.000000  0.400000  0.500000      2.000000
  0.200000  0.200000  0.500000      2.000000
 -0.200000  0.200000  0.500000      2.000000
  0.400000  0.200000  0.500000      2.000000
 -0.200000  0.400000  0.500000      2.000000
 -0.400000  0.200000  0.500000      2.000000
  0.200000  0.400000  0.500000      2.000000
  0.400000  0.400000  0.500000      2.000000
 -0.400000  0.400000  0.500000      2.000000
 
 Following cartesian coordinates:
            Coordinates               Weight
  0.000000  0.000000  0.000000      1.000000
  0.035939  0.000000  0.000000      2.000000
  0.000000  0.035939  0.000000      2.000000
  0.071878  0.000000  0.000000      2.000000
  0.000000  0.071878  0.000000      2.000000
  0.035939  0.035939  0.000000      2.000000
 -0.035939  0.035939  0.000000      2.000000
  0.071878  0.035939  0.000000      2.000000
 -0.035939  0.071878  0.000000      2.000000
 -0.071878  0.035939  0.000000      2.000000
  0.035939  0.071878  0.000000      2.000000
  0.071878  0.071878  0.000000      2.000000
 -0.071878  0.071878  0.000000      2.000000
  0.000000  0.000000  0.035582      2.000000
  0.035939  0.000000  0.035582      2.000000
  0.000000  0.035939  0.035582      2.000000
 -0.035939  0.000000  0.035582      2.000000
  0.000000 -0.035939  0.035582      2.000000
  0.071878  0.000000  0.035582      2.000000
  0.000000  0.071878  0.035582      2.000000
 -0.071878  0.000000  0.035582      2.000000
  0.000000 -0.071878  0.035582      2.000000
  0.035939  0.035939  0.035582      2.000000
 -0.035939  0.035939  0.035582      2.000000
 -0.035939 -0.035939  0.035582      2.000000
  0.035939 -0.035939  0.035582      2.000000
  0.071878  0.035939  0.035582      2.000000
 -0.035939  0.071878  0.035582      2.000000
 -0.071878 -0.035939  0.035582      2.000000
  0.035939 -0.071878  0.035582      2.000000
 -0.071878  0.035939 -0.035582      2.000000
  0.035939  0.071878 -0.035582      2.000000
  0.071878 -0.035939 -0.035582      2.000000
 -0.035939 -0.071878 -0.035582      2.000000
  0.071878  0.071878  0.035582      2.000000
 -0.071878  0.071878  0.035582      2.000000
 -0.071878 -0.071878  0.035582      2.000000
  0.071878 -0.071878  0.035582      2.000000
  0.000000  0.000000  0.071164      2.000000
  0.035939  0.000000  0.071164      2.000000
  0.000000  0.035939  0.071164      2.000000
 -0.035939  0.000000  0.071164      2.000000
  0.000000 -0.035939  0.071164      2.000000
  0.071878  0.000000  0.071164      2.000000
  0.000000  0.071878  0.071164      2.000000
 -0.071878  0.000000  0.071164      2.000000
  0.000000 -0.071878  0.071164      2.000000
  0.035939  0.035939  0.071164      2.000000
 -0.035939  0.035939  0.071164      2.000000
 -0.035939 -0.035939  0.071164      2.000000
  0.035939 -0.035939  0.071164      2.000000
  0.071878  0.035939  0.071164      2.000000
 -0.035939  0.071878  0.071164      2.000000
 -0.071878 -0.035939  0.071164      2.000000
  0.035939 -0.071878  0.071164      2.000000
 -0.071878  0.035939 -0.071164      2.000000
  0.035939  0.071878 -0.071164      2.000000
  0.071878 -0.035939 -0.071164      2.000000
 -0.035939 -0.071878 -0.071164      2.000000
  0.071878  0.071878  0.071164      2.000000
 -0.071878  0.071878  0.071164      2.000000
 -0.071878 -0.071878  0.071164      2.000000
  0.071878 -0.071878  0.071164      2.000000
  0.000000  0.000000  0.106746      1.000000
  0.035939  0.000000  0.106746      2.000000
  0.000000  0.035939  0.106746      2.000000
  0.071878  0.000000  0.106746      2.000000
  0.000000  0.071878  0.106746      2.000000
  0.035939  0.035939  0.106746      2.000000
 -0.035939  0.035939  0.106746      2.000000
  0.071878  0.035939  0.106746      2.000000
 -0.035939  0.071878  0.106746      2.000000
 -0.071878  0.035939  0.106746      2.000000
  0.035939  0.071878  0.106746      2.000000
  0.071878  0.071878  0.106746      2.000000
 -0.071878  0.071878  0.106746      2.000000
 


--------------------------------------------------------------------------------------------------------




 Dimension of arrays:
   k-points           NKPTS =     76   k-points in BZ     NKDIM =     76   number of bands    NBANDS=    128
   number of dos      NEDOS =    301   number of ions     NIONS =     16
   non local maximal  LDIM  =      4   non local SUM 2l+1 LMDIM =      8
   total plane-waves  NPLWV = 172800
   max r-space proj   IRMAX =      1   max aug-charges    IRDMAX=   8886
   dimension x,y,z NGX =    60 NGY =   60 NGZ =   48
   dimension x,y,z NGXF=   120 NGYF=  120 NGZF=   96
   support grid    NGXF=   120 NGYF=  120 NGZF=   96
   ions per type =               2   2   4   8
   NGX,Y,Z   is equivalent  to a cutoff of  17.92, 17.92, 17.04 a.u.
   NGXF,Y,Z  is equivalent  to a cutoff of  35.85, 35.85, 34.07 a.u.

 SYSTEM =  unknown system                          
 POSCAR =   C  O  N  H                             

 Startparameter for this run:
   NWRITE =      2    write-flag & timer
   PREC   = accura    normal or accurate (medium, high low for compatibility)
   ISTART =      0    job   : 0-new  1-cont  2-samecut
   ICHARG =      2    charge: 1-file 2-atom 10-const
   ISPIN  =      1    spin polarized calculation?
   LNONCOLLINEAR =      F non collinear calculations
   LSORBIT =      F    spin-orbit coupling
   INIWAV =      1    electr: 0-lowe 1-rand  2-diag
   LASPH  =      F    aspherical Exc in radial PAW
 Electronic Relaxation 1
   ENCUT  = 1000.0 eV  73.50 Ry    8.57 a.u.  14.35 14.35 12.08*2*pi/ulx,y,z
   ENINI  = 1000.0     initial cutoff
   ENAUG  = 1000.0 eV  augmentation charge cutoff
   NELM   =     60;   NELMIN=  2; NELMDL= -5     # of ELM steps 
   EDIFF  = 0.1E-06   stopping-criterion for ELM
   LREAL  =      F    real-space projection
   NLSPLINE    = F    spline interpolate recip. space projectors
   LCOMPAT=      F    compatible to vasp.4.4
   GGA_COMPAT  = T    GGA compatible to vasp.4.4-vasp.4.6
   LMAXPAW     = -100 max onsite density
   LMAXMIX     =    2 max onsite mixed and CHGCAR
   VOSKOWN=      0    Vosko Wilk Nusair interpolation
   ROPT   =    0.00000   0.00000   0.00000   0.00000
 Ionic relaxation
   EDIFFG = 0.1E-05   stopping-criterion for IOM
   NSW    =      0    number of steps for IOM
   NBLOCK =      1;   KBLOCK =      1    inner block; outer block 
   IBRION =     -1    ionic relax: 0-MD 1-quasi-New 2-CG
   NFREE  =      0    steps in history (QN), initial steepest desc. (CG)
   ISIF   =      0    stress and relaxation
   IWAVPR =     10    prediction:  0-non 1-charg 2-wave 3-comb
   ISYM   =      2    0-nonsym 1-usesym 2-fastsym
   LCORR  =      T    Harris-Foulkes like correction to forces

   POTIM  = 0.5000    time-step for ionic-motion
   TEIN   =    0.0    initial temperature
   TEBEG  =    0.0;   TEEND  =   0.0 temperature during run
   SMASS  =  -3.00    Nose mass-parameter (am)
   estimated Nose-frequenzy (Omega)   =  0.10E-29 period in steps = 0.13E+47 mass=  -0.708E-27a.u.
   SCALEE = 1.0000    scale energy and forces
   NPACO  =    256;   APACO  = 10.0  distance and # of slots for P.C.
   PSTRESS=    0.0 pullay stress

  Mass of Ions in am
   POMASS =  12.01 16.00 14.00  1.00
  Ionic Valenz
   ZVAL   =   4.00  6.00  5.00  1.00
  Atomic Wigner-Seitz radii
   RWIGS  =  -1.00 -1.00 -1.00 -1.00
  virtual crystal weights 
   VCA    =   1.00  1.00  1.00  1.00
   NELECT =      48.0000    total number of electrons
   NUPDOWN=      -1.0000    fix difference up-down

 DOS related values:
   EMIN   =  10.00;   EMAX   =-10.00  energy-range for DOS
   EFERMI =   0.00;   METHOD = LEGACY      
   ISMEAR =     0;   SIGMA  =   0.01  broadening in eV -4-tet -1-fermi 0-gaus

 Electronic relaxation 2 (details)
   IALGO  =     58    algorithm
   LDIAG  =      T    sub-space diagonalisation (order eigenvalues)
   LSUBROT=      F    optimize rotation matrix (better conditioning)
   TURBO    =      0    0=normal 1=particle mesh
   IRESTART =      0    0=no restart 2=restart with 2 vectors
   NREBOOT  =      0    no. of reboots
   NMIN     =      0    reboot dimension
   EREF     =   0.00    reference energy to select bands
   IMIX   =      4    mixing-type and parameters
     AMIX     =   0.40;   BMIX     =  1.00
     AMIX_MAG =   1.60;   BMIX_MAG =  1.00
     AMIN     =   0.10
     WC   =   100.;   INIMIX=   1;  MIXPRE=   1;  MAXMIX= -45

 Intra band minimization:
   WEIMIN = 0.0000     energy-eigenvalue tresh-hold
   EBREAK =  0.20E-09  absolut break condition
   DEPER  =   0.30     relativ break condition  

   TIME   =   0.40     timestep for ELM

  volume/ion in A,a.u.               =       9.07        61.18
  Fermi-wavevector in a.u.,A,eV,Ry     =   1.132330  2.139793 17.444984  1.282170
  Thomas-Fermi vector in A             =   2.269030

 Write flags
   LWAVE        =      F    write WAVECAR
   LDOWNSAMPLE  =      F    k-point downsampling of WAVECAR
   LCHARG       =      T    write CHGCAR
   LVTOT        =      F    write LOCPOT, total local potential
   LVHAR        =      F    write LOCPOT, Hartree potential only
   LELF         =      F    write electronic localiz. function (ELF)
   LORBIT       =      0    0 simple, 1 ext, 2 COOP (PROOUT), +10 PAW based schemes


 Dipole corrections
   LMONO  =      F    monopole corrections only (constant potential shift)
   LDIPOL =      F    correct potential (dipole corrections)
   IDIPOL =      0    1-x, 2-y, 3-z, 4-all directions 
   EPSILON=  1.0000000 bulk dielectric constant

 Exchange correlation treatment:
   GGA     =    RP    GGA type
   LEXCH   =     9    internal setting for exchange type
   LIBXC   =     F    Libxc                    
   VOSKOWN =     0    Vosko Wilk Nusair interpolation
   LHFCALC =     F    Hartree Fock is set to
   LHFONE  =     F    Hartree Fock one center treatment
   AEXX    =    0.0000 exact exchange contribution

 Linear response parameters
   LEPSILON=     F    determine dielectric tensor
   LRPA    =     F    only Hartree local field effects (RPA)
   LNABLA  =     F    use nabla operator in PAW spheres
   LVEL    =     F    velocity operator in full k-point grid
   CSHIFT  =0.1000    complex shift for real part using Kramers Kronig
   OMEGAMAX=  -1.0    maximum frequency
   DEG_THRESHOLD= 0.2000000E-02 threshold for treating states as degnerate
   RTIME   =   -0.100 relaxation time in fs
  (WPLASMAI=    0.000 imaginary part of plasma frequency in eV, 0.658/RTIME)
   DFIELD  = 0.0000000 0.0000000 0.0000000 field for delta impulse in time

  Optional k-point grid parameters
   LKPOINTS_OPT  =     F    use optional k-point grid
   KPOINTS_OPT_MODE=     1    mode for optional k-point grid

 Orbital magnetization related:
   ORBITALMAG=     F  switch on orbital magnetization
   LCHIMAG   =     F  perturbation theory with respect to B field
   DQ        =  0.001000  dq finite difference perturbation B field
   LLRAUG    =     F  two centre corrections for induced B field
   LBONE     =     F  B-component reconstruction in AE one-centre
   LVGVCALC  =     T  calculate vGv susceptibility
   LVGVAPPL  =     F  apply vGv susceptibility instead of pGv for G=0

 Random number generation:
   RANDOM_GENERATOR = DEFAULT
   PCG_SEED         = not used


--------------------------------------------------------------------------------------------------------


 Static calculation
 charge density and potential will be updated during run
 non-spin polarized calculation
 Conjugate gradient for all bands (Freysoldt, et al. PRB 79, 241103 (2009))
 preconditioned conjugated gradient                                        
 perform sub-space diagonalisation
    before iterative eigenvector-optimisation
 modified Broyden-mixing scheme, WC =      100.0
 initial mixing is a Kerker type mixing with AMIX =  0.4000 and BMIX =      1.0000
 Hartree-type preconditioning will be used
 using additional bands          104
 reciprocal scheme for non local part
 use partial core corrections
 no Harris-corrections to forces 
 use gradient corrections 
 use of overlap-Matrix (Vanderbilt PP)
 Gauss-broadening in eV      SIGMA  =   0.01


--------------------------------------------------------------------------------------------------------


  energy-cutoff  :     1000.00
  volume of cell :      145.06
      direct lattice vectors                 reciprocal lattice vectors
     5.565000000  0.000000000  0.000000000     0.179694519  0.000000000  0.000000000
     0.000000000  5.565000000  0.000000000     0.000000000  0.179694519  0.000000000
     0.000000000  0.000000000  4.684000000     0.000000000  0.000000000  0.213492741

  length of vectors
     5.565000000  5.565000000  4.684000000     0.179694519  0.179694519  0.213492741



 k-points in units of 2pi/SCALE and weight: auto                                    
   0.00000000  0.00000000  0.00000000       0.007
   0.03593890  0.00000000  0.00000000       0.013
   0.00000000  0.03593890  0.00000000       0.013
   0.07187781  0.00000000  0.00000000       0.013
   0.00000000  0.07187781  0.00000000       0.013
   0.03593890  0.03593890  0.00000000       0.013
  -0.03593890  0.03593890  0.00000000       0.013
   0.07187781  0.03593890  0.00000000       0.013
  -0.03593890  0.07187781  0.00000000       0.013
  -0.07187781  0.03593890  0.00000000       0.013
   0.03593890  0.07187781  0.00000000       0.013
   0.07187781  0.07187781  0.00000000       0.013
  -0.07187781  0.07187781  0.00000000       0.013
   0.00000000  0.00000000  0.03558212       0.013
   0.03593890  0.00000000  0.03558212       0.013
   0.00000000  0.03593890  0.03558212       0.013
  -0.03593890  0.00000000  0.03558212       0.013
   0.00000000 -0.03593890  0.03558212       0.013
   0.07187781  0.00000000  0.03558212       0.013
   0.00000000  0.07187781  0.03558212       0.013
  -0.07187781  0.00000000  0.03558212       0.013
   0.00000000 -0.07187781  0.03558212       0.013
   0.03593890  0.03593890  0.03558212       0.013
  -0.03593890  0.03593890  0.03558212       0.013
  -0.03593890 -0.03593890  0.03558212       0.013
   0.03593890 -0.03593890  0.03558212       0.013
   0.07187781  0.03593890  0.03558212       0.013
  -0.03593890  0.07187781  0.03558212       0.013
  -0.07187781 -0.03593890  0.03558212       0.013
   0.03593890 -0.07187781  0.03558212       0.013
  -0.07187781  0.03593890 -0.03558212       0.013
   0.03593890  0.07187781 -0.03558212       0.013
   0.07187781 -0.03593890 -0.03558212       0.013
  -0.03593890 -0.07187781 -0.03558212       0.013
   0.07187781  0.07187781  0.03558212       0.013
  -0.07187781  0.07187781  0.03558212       0.013
  -0.07187781 -0.07187781  0.03558212       0.013
   0.07187781 -0.07187781  0.03558212       0.013
   0.00000000  0.00000000  0.07116425       0.013
   0.03593890  0.00000000  0.07116425       0.013
   0.00000000  0.03593890  0.07116425       0.013
  -0.03593890  0.00000000  0.07116425       0.013
   0.00000000 -0.03593890  0.07116425       0.013
   0.07187781  0.00000000  0.07116425       0.013
   0.00000000  0.07187781  0.07116425       0.013
  -0.07187781  0.00000000  0.07116425       0.013
   0.00000000 -0.07187781  0.07116425       0.013
   0.03593890  0.03593890  0.07116425       0.013
  -0.03593890  0.03593890  0.07116425       0.013
  -0.03593890 -0.03593890  0.07116425       0.013
   0.03593890 -0.03593890  0.07116425       0.013
   0.07187781  0.03593890  0.07116425       0.013
  -0.03593890  0.07187781  0.07116425       0.013
  -0.07187781 -0.03593890  0.07116425       0.013
   0.03593890 -0.07187781  0.07116425       0.013
  -0.07187781  0.03593890 -0.07116425       0.013
   0.03593890  0.07187781 -0.07116425       0.013
   0.07187781 -0.03593890 -0.07116425       0.013
  -0.03593890 -0.07187781 -0.07116425       0.013
   0.07187781  0.07187781  0.07116425       0.013
  -0.07187781  0.07187781  0.07116425       0.013
  -0.07187781 -0.07187781  0.07116425       0.013
   0.07187781 -0.07187781  0.07116425       0.013
   0.00000000  0.00000000  0.10674637       0.007
   0.03593890  0.00000000  0.10674637       0.013
   0.00000000  0.03593890  0.10674637       0.013
   0.07187781  0.00000000  0.10674637       0.013
   0.00000000  0.07187781  0.10674637       0.013
   0.03593890  0.03593890  0.10674637       0.013
  -0.03593890  0.03593890  0.10674637       0.013
   0.07187781  0.03593890  0.10674637       0.013
  -0.03593890  0.07187781  0.10674637       0.013
  -0.07187781  0.03593890  0.10674637       0.013
   0.03593890  0.07187781  0.10674637       0.013
   0.07187781  0.07187781  0.10674637       0.013
  -0.07187781  0.07187781  0.10674637       0.013

 k-points in reciprocal lattice and weights: auto                                    
   0.00000000  0.00000000  0.00000000       0.007
   0.20000000  0.00000000  0.00000000       0.013
   0.00000000  0.20000000  0.00000000       0.013
   0.40000000  0.00000000  0.00000000       0.013
   0.00000000  0.40000000  0.00000000       0.013
   0.20000000  0.20000000  0.00000000       0.013
  -0.20000000  0.20000000  0.00000000       0.013
   0.40000000  0.20000000  0.00000000       0.013
  -0.20000000  0.40000000  0.00000000       0.013
  -0.40000000  0.20000000  0.00000000       0.013
   0.20000000  0.40000000  0.00000000       0.013
   0.40000000  0.40000000  0.00000000       0.013
  -0.40000000  0.40000000  0.00000000       0.013
   0.00000000  0.00000000  0.16666667       0.013
   0.20000000  0.00000000  0.16666667       0.013
   0.00000000  0.20000000  0.16666667       0.013
  -0.20000000  0.00000000  0.16666667       0.013
   0.00000000 -0.20000000  0.16666667       0.013
   0.40000000  0.00000000  0.16666667       0.013
   0.00000000  0.40000000  0.16666667       0.013
  -0.40000000  0.00000000  0.16666667       0.013
   0.00000000 -0.40000000  0.16666667       0.013
   0.20000000  0.20000000  0.16666667       0.013
  -0.20000000  0.20000000  0.16666667       0.013
  -0.20000000 -0.20000000  0.16666667       0.013
   0.20000000 -0.20000000  0.16666667       0.013
   0.40000000  0.20000000  0.16666667       0.013
  -0.20000000  0.40000000  0.16666667       0.013
  -0.40000000 -0.20000000  0.16666667       0.013
   0.20000000 -0.40000000  0.16666667       0.013
  -0.40000000  0.20000000 -0.16666667       0.013
   0.20000000  0.40000000 -0.16666667       0.013
   0.40000000 -0.20000000 -0.16666667       0.013
  -0.20000000 -0.40000000 -0.16666667       0.013
   0.40000000  0.40000000  0.16666667       0.013
  -0.40000000  0.40000000  0.16666667       0.013
  -0.40000000 -0.40000000  0.16666667       0.013
   0.40000000 -0.40000000  0.16666667       0.013
   0.00000000  0.00000000  0.33333333       0.013
   0.20000000  0.00000000  0.33333333       0.013
   0.00000000  0.20000000  0.33333333       0.013
  -0.20000000  0.00000000  0.33333333       0.013
   0.00000000 -0.20000000  0.33333333       0.013
   0.40000000  0.00000000  0.33333333       0.013
   0.00000000  0.40000000  0.33333333       0.013
  -0.40000000  0.00000000  0.33333333       0.013
   0.00000000 -0.40000000  0.33333333       0.013
   0.20000000  0.20000000  0.33333333       0.013
  -0.20000000  0.20000000  0.33333333       0.013
  -0.20000000 -0.20000000  0.33333333       0.013
   0.20000000 -0.20000000  0.33333333       0.013
   0.40000000  0.20000000  0.33333333       0.013
  -0.20000000  0.40000000  0.33333333       0.013
  -0.40000000 -0.20000000  0.33333333       0.013
   0.20000000 -0.40000000  0.33333333       0.013
  -0.40000000  0.20000000 -0.33333333       0.013
   0.20000000  0.40000000 -0.33333333       0.013
   0.40000000 -0.20000000 -0.33333333       0.013
  -0.20000000 -0.40000000 -0.33333333       0.013
   0.40000000  0.40000000  0.33333333       0.013
  -0.40000000  0.40000000  0.33333333       0.013
  -0.40000000 -0.40000000  0.33333333       0.013
   0.40000000 -0.40000000  0.33333333       0.013
   0.00000000  0.00000000  0.50000000       0.007
   0.20000000  0.00000000  0.50000000       0.013
   0.00000000  0.20000000  0.50000000       0.013
   0.40000000  0.00000000  0.50000000       0.013
   0.00000000  0.40000000  0.50000000       0.013
   0.20000000  0.20000000  0.50000000       0.013
  -0.20000000  0.20000000  0.50000000       0.013
   0.40000000  0.20000000  0.50000000       0.013
  -0.20000000  0.40000000  0.50000000       0.013
  -0.40000000  0.20000000  0.50000000       0.013
   0.20000000  0.40000000  0.50000000       0.013
   0.40000000  0.40000000  0.50000000       0.013
  -0.40000000  0.40000000  0.50000000       0.013

 position of ions in fractional coordinates (direct lattice) 
   0.00000015  0.42712357  0.32605867
   0.49999993  0.92712291  0.67394153
   0.99999985  0.42712335  0.59785228
   0.49999992  0.92712301  0.40214792
   0.14681226  0.57393323  0.17687500
   0.85318784  0.28031383  0.17687528
   0.64681222  0.78031312  0.82312500
   0.35318776  0.07393271  0.82312474
   0.26008585  0.68721094  0.28293173
   0.73991375  0.16703538  0.28293187
   0.76008589  0.66703534  0.71706795
   0.23991392  0.18721083  0.71706788
   0.14575341  0.57287687  0.95926030
   0.85424623  0.28136951  0.95926010
   0.64575356  0.78136933  0.04073979
   0.35424612  0.07287699  0.04073970

 position of ions in cartesian coordinates  (Angst):
   0.00000082  2.37694268  1.52725882
   2.78249961  5.15943899  3.15674210
   5.56499918  2.37694144  2.80034008
   2.78249958  5.15943957  1.88366086
   0.81701025  3.19393841  0.82848252
   4.74799034  1.55994645  0.82848382
   3.59951001  4.34244250  3.85551749
   1.96548988  0.41143555  3.85551629
   1.44737778  3.82432890  1.32525221
   4.11762001  0.92955187  1.32525286
   4.22987798  3.71205169  3.35874627
   1.33512097  1.04182830  3.35874594
   0.81111773  3.18805976  4.49317523
   4.75388025  1.56582130  4.49317429
   3.59361857  4.34832031  0.19082520
   1.97137967  0.40556043  0.19082477



--------------------------------------------------------------------------------------------------------


 k-point   1 :   0.0000 0.0000 0.0000  plane waves:   10417
 k-point   2 :   0.2000 0.0000 0.0000  plane waves:   10421
 k-point   3 :   0.0000 0.2000 0.0000  plane waves:   10421
 k-point   4 :   0.4000 0.0000 0.0000  plane waves:   10374
 k-point   5 :   0.0000 0.4000 0.0000  plane waves:   10374
 k-point   6 :   0.2000 0.2000 0.0000  plane waves:   10400
 k-point   7 :  -0.2000 0.2000 0.0000  plane waves:   10400
 k-point   8 :   0.4000 0.2000 0.0000  plane waves:   10408
 k-point   9 :  -0.2000 0.4000 0.0000  plane waves:   10408
 k-point  10 :  -0.4000 0.2000 0.0000  plane waves:   10408
 k-point  11 :   0.2000 0.4000 0.0000  plane waves:   10408
 k-point  12 :   0.4000 0.4000 0.0000  plane waves:   10434
 k-point  13 :  -0.4000 0.4000 0.0000  plane waves:   10434
 k-point  14 :   0.0000 0.0000 0.1667  plane waves:   10412
 k-point  15 :   0.2000 0.0000 0.1667  plane waves:   10423
 k-point  16 :   0.0000 0.2000 0.1667  plane waves:   10423
 k-point  17 :  -0.2000 0.0000 0.1667  plane waves:   10423
 k-point  18 :   0.0000-0.2000 0.1667  plane waves:   10423
 k-point  19 :   0.4000 0.0000 0.1667  plane waves:   10411
 k-point  20 :   0.0000 0.4000 0.1667  plane waves:   10411
 k-point  21 :  -0.4000 0.0000 0.1667  plane waves:   10411
 k-point  22 :   0.0000-0.4000 0.1667  plane waves:   10411
 k-point  23 :   0.2000 0.2000 0.1667  plane waves:   10421
 k-point  24 :  -0.2000 0.2000 0.1667  plane waves:   10421
 k-point  25 :  -0.2000-0.2000 0.1667  plane waves:   10421
 k-point  26 :   0.2000-0.2000 0.1667  plane waves:   10421
 k-point  27 :   0.4000 0.2000 0.1667  plane waves:   10412
 k-point  28 :  -0.2000 0.4000 0.1667  plane waves:   10412
 k-point  29 :  -0.4000-0.2000 0.1667  plane waves:   10412
 k-point  30 :   0.2000-0.4000 0.1667  plane waves:   10412
 k-point  31 :  -0.4000 0.2000-0.1667  plane waves:   10412
 k-point  32 :   0.2000 0.4000-0.1667  plane waves:   10412
 k-point  33 :   0.4000-0.2000-0.1667  plane waves:   10412
 k-point  34 :  -0.2000-0.4000-0.1667  plane waves:   10412
 k-point  35 :   0.4000 0.4000 0.1667  plane waves:   10400
 k-point  36 :  -0.4000 0.4000 0.1667  plane waves:   10400
 k-point  37 :  -0.4000-0.4000 0.1667  plane waves:   10400
 k-point  38 :   0.4000-0.4000 0.1667  plane waves:   10400
 k-point  39 :   0.0000 0.0000 0.3333  plane waves:   10424
 k-point  40 :   0.2000 0.0000 0.3333  plane waves:   10416
 k-point  41 :   0.0000 0.2000 0.3333  plane waves:   10416
 k-point  42 :  -0.2000 0.0000 0.3333  plane waves:   10416
 k-point  43 :   0.0000-0.2000 0.3333  plane waves:   10416
 k-point  44 :   0.4000 0.0000 0.3333  plane waves:   10420
 k-point  45 :   0.0000 0.4000 0.3333  plane waves:   10420
 k-point  46 :  -0.4000 0.0000 0.3333  plane waves:   10420
 k-point  47 :   0.0000-0.4000 0.3333  plane waves:   10420
 k-point  48 :   0.2000 0.2000 0.3333  plane waves:   10430
 k-point  49 :  -0.2000 0.2000 0.3333  plane waves:   10430
 k-point  50 :  -0.2000-0.2000 0.3333  plane waves:   10430
 k-point  51 :   0.2000-0.2000 0.3333  plane waves:   10430
 k-point  52 :   0.4000 0.2000 0.3333  plane waves:   10418
 k-point  53 :  -0.2000 0.4000 0.3333  plane waves:   10418
 k-point  54 :  -0.4000-0.2000 0.3333  plane waves:   10418
 k-point  55 :   0.2000-0.4000 0.3333  plane waves:   10418
 k-point  56 :  -0.4000 0.2000-0.3333  plane waves:   10418
 k-point  57 :   0.2000 0.4000-0.3333  plane waves:   10418
 k-point  58 :   0.4000-0.2000-0.3333  plane waves:   10418
 k-point  59 :  -0.2000-0.4000-0.3333  plane waves:   10418
 k-point  60 :   0.4000 0.4000 0.3333  plane waves:   10412
 k-point  61 :  -0.4000 0.4000 0.3333  plane waves:   10412
 k-point  62 :  -0.4000-0.4000 0.3333  plane waves:   10412
 k-point  63 :   0.4000-0.4000 0.3333  plane waves:   10412
 k-point  64 :   0.0000 0.0000 0.5000  plane waves:   10456
 k-point  65 :   0.2000 0.0000 0.5000  plane waves:   10434
 k-point  66 :   0.0000 0.2000 0.5000  plane waves:   10434
 k-point  67 :   0.4000 0.0000 0.5000  plane waves:   10440
 k-point  68 :   0.0000 0.4000 0.5000  plane waves:   10440
 k-point  69 :   0.2000 0.2000 0.5000  plane waves:   10410
 k-point  70 :  -0.2000 0.2000 0.5000  plane waves:   10410
 k-point  71 :   0.4000 0.2000 0.5000  plane waves:   10418
 k-point  72 :  -0.2000 0.4000 0.5000  plane waves:   10418
 k-point  73 :  -0.4000 0.2000 0.5000  plane waves:   10418
 k-point  74 :   0.2000 0.4000 0.5000  plane waves:   10418
 k-point  75 :   0.4000 0.4000 0.5000  plane waves:   10420
 k-point  76 :  -0.4000 0.4000 0.5000  plane waves:   10420

 maximum and minimum number of plane-waves per node :      5244     5174

 maximum number of plane-waves:     10456
 maximum index in each direction: 
   IXMAX=   14   IYMAX=   14   IZMAX=   12
   IXMIN=  -14   IYMIN=  -14   IZMIN=  -12


 parallel 3D FFT for wavefunctions:
    minimum data exchange during FFTs selected (reduces bandwidth)
 parallel 3D FFT for charge:
    minimum data exchange during FFTs selected (reduces bandwidth)


 total amount of memory used by VASP MPI-rank0   160409. kBytes
=======================================================================

   base      :      30000. kBytes
   nonl-proj :     103448. kBytes
   fftplans  :       2999. kBytes
   grid      :       4327. kBytes
   one-center:         24. kBytes
   wavefun   :      19611. kBytes

     INWAV:  cpu time      0.0001: real time      0.0003
 Broyden mixing: mesh for mixing (old mesh)
   NGX = 29   NGY = 29   NGZ = 25
  (NGX  =120   NGY  =120   NGZ  = 96)
  gives a total of  21025 points

 initial charge density was supplied:
 charge density of overlapping atoms calculated
 number of electron      48.0000000 magnetization 
 keeping initial charge density in first step


--------------------------------------------------------------------------------------------------------


 Maximum index for augmentation-charges          493 (set IRDMAX)


--------------------------------------------------------------------------------------------------------


 First call to EWALD:  gamma=   0.337
 Maximum number of real-space cells 3x 3x 3
 Maximum number of reciprocal cells 3x 3x 3

    FEWALD:  cpu time      0.0013: real time      0.0013


--------------------------------------- Ionic step        1  -------------------------------------------




--------------------------------------- Iteration      1(   1)  ---------------------------------------


    POTLOK:  cpu time      0.0494: real time      0.0502
    SETDIJ:  cpu time      0.0090: real time      0.0096
    TRIAL :  cpu time     40.7728: real time     40.7954
    CORREC:  cpu time      0.0013: real time      0.0013
    --------------------------------------------
      LOOP:  cpu time     40.8586: real time     40.8826

 eigenvalue-minimisations  : 19456
 total energy-change (2. order) : 0.9323147E+02  (-0.5076497E+04)
 number of electron      48.0000000 magnetization 
 augmentation part       48.0000000 magnetization 

 Free energy of the ion-electron system (eV)
  ---------------------------------------------------
  alpha Z        PSCENC =        45.44424880
  Ewald energy   TEWEN  =     -1112.25898815
  -Hartree energ DENC   =      -975.75293079
  -exchange      EXHF   =         0.00000000
  -V(xc)+E(xc)   XCENC  =       152.31321582
  PAW double counting   =      1760.70849258    -1746.09105411
  entropy T*S    EENTRO =        -0.00000000
  eigenvalues    EBANDS =      -348.63693194
  atomic energy  EATOM  =      2317.50542136
  ---------------------------------------------------
  free energy    TOTEN  =        93.23147358 eV

  energy without entropy =       93.23147358  energy(sigma->0) =       93.23147358


--------------------------------------------------------------------------------------------------------




--------------------------------------- Iteration      1(   2)  ---------------------------------------


    TRIAL :  cpu time    114.4131: real time    114.4879
    CORREC:  cpu time      0.0004: real time      0.0004
    --------------------------------------------
      LOOP:  cpu time    114.4264: real time    114.5184

 eigenvalue-minimisations  : 29184
 total energy-change (2. order) :-0.1949590E+03  (-0.1949590E+03)
 number of electron      48.0000000 magnetization 
 augmentation part       48.0000000 magnetization 

 Free energy of the ion-electron system (eV)
  ---------------------------------------------------
  alpha Z        PSCENC =        45.44424880
  Ewald energy   TEWEN  =     -1112.25898815
  -Hartree energ DENC   =      -975.75293079
  -exchange      EXHF   =         0.00000000
  -V(xc)+E(xc)   XCENC  =       152.31321582
  PAW double counting   =      1760.70849258    -1746.09105411
  entropy T*S    EENTRO =        -0.00000000
  eigenvalues    EBANDS =      -543.59589371
  atomic energy  EATOM  =      2317.50542136
  ---------------------------------------------------
  free energy    TOTEN  =      -101.72748819 eV

  energy without entropy =     -101.72748819  energy(sigma->0) =     -101.72748819


--------------------------------------------------------------------------------------------------------




--------------------------------------- Iteration      1(   3)  ---------------------------------------


    TRIAL :  cpu time     44.4242: real time     44.4484
    CORREC:  cpu time      0.0005: real time      0.0005
    --------------------------------------------
      LOOP:  cpu time     44.4372: real time     44.4802

 eigenvalue-minimisations  : 19456
 total energy-change (2. order) :-0.1441066E+01  (-0.1441066E+01)
 number of electron      48.0000000 magnetization 
 augmentation part       48.0000000 magnetization 

 Free energy of the ion-electron system (eV)
  ---------------------------------------------------
  alpha Z        PSCENC =        45.44424880
  Ewald energy   TEWEN  =     -1112.25898815
  -Hartree energ DENC   =      -975.75293079
  -exchange      EXHF   =         0.00000000
  -V(xc)+E(xc)   XCENC  =       152.31321582
  PAW double counting   =      1760.70849258    -1746.09105411
  entropy T*S    EENTRO =        -0.00000000
  eigenvalues    EBANDS =      -545.03695921
  atomic energy  EATOM  =      2317.50542136
  ---------------------------------------------------
  free energy    TOTEN  =      -103.16855369 eV

  energy without entropy =     -103.16855369  energy(sigma->0) =     -103.16855369


--------------------------------------------------------------------------------------------------------




--------------------------------------- Iteration      1(   4)  ---------------------------------------


    TRIAL :  cpu time    243.6767: real time    243.8005
    CORREC:  cpu time      0.0021: real time      0.0021
    --------------------------------------------
      LOOP:  cpu time    243.7080: real time    243.8320

 eigenvalue-minimisations  : 38912
 total energy-change (2. order) :-0.2033950E-02  (-0.2033950E-02)
 number of electron      48.0000000 magnetization 
 augmentation part       48.0000000 magnetization 

 Free energy of the ion-electron system (eV)
  ---------------------------------------------------
  alpha Z        PSCENC =        45.44424880
  Ewald energy   TEWEN  =     -1112.25898815
  -Hartree energ DENC   =      -975.75293079
  -exchange      EXHF   =         0.00000000
  -V(xc)+E(xc)   XCENC  =       152.31321582
  PAW double counting   =      1760.70849258    -1746.09105411
  entropy T*S    EENTRO =        -0.00000000
  eigenvalues    EBANDS =      -545.03899316
  atomic energy  EATOM  =      2317.50542136
  ---------------------------------------------------
  free energy    TOTEN  =      -103.17058764 eV

  energy without entropy =     -103.17058764  energy(sigma->0) =     -103.17058764


--------------------------------------------------------------------------------------------------------




--------------------------------------- Iteration      1(   5)  ---------------------------------------


    TRIAL :  cpu time     44.0440: real time     44.0681
    CORREC:  cpu time      0.0023: real time      0.0023
    CHARGE:  cpu time      0.0993: real time      0.0996
    --------------------------------------------
      LOOP:  cpu time     44.1607: real time     44.2015

 eigenvalue-minimisations  : 19456
 total energy-change (2. order) :-0.5038601E-08  (-0.5038149E-08)
 number of electron      47.9999999 magnetization 
 augmentation part        0.1751916 magnetization 

 Free energy of the ion-electron system (eV)
  ---------------------------------------------------
  alpha Z        PSCENC =        45.44424880
  Ewald energy   TEWEN  =     -1112.25898815
  -Hartree energ DENC   =      -975.75293079
  -exchange      EXHF   =         0.00000000
  -V(xc)+E(xc)   XCENC  =       152.31321582
  PAW double counting   =      1760.70849258    -1746.09105411
  entropy T*S    EENTRO =        -0.00000000
  eigenvalues    EBANDS =      -545.03899316
  atomic energy  EATOM  =      2317.50542136
  ---------------------------------------------------
  free energy    TOTEN  =      -103.17058765 eV

  energy without entropy =     -103.17058765  energy(sigma->0) =     -103.17058765


--------------------------------------------------------------------------------------------------------




--------------------------------------- Iteration      1(   6)  ---------------------------------------


    POTLOK:  cpu time      0.0161: real time      0.0162
    SETDIJ:  cpu time      0.0017: real time      0.0017
    TRIAL :  cpu time      5.0360: real time      5.0396
    CORREC:  cpu time      2.2988: real time      2.2996
    CHARGE:  cpu time      0.0838: real time      0.0838
    --------------------------------------------
      LOOP:  cpu time      7.4557: real time      7.4691

 eigenvalue-minimisations  :     0
 total energy-change (2. order) : 0.1864121E+02  (-0.9697754E+01)
 number of electron      47.9999999 magnetization 
 augmentation part        0.0491345 magnetization 

 Free energy of the ion-electron system (eV)
  ---------------------------------------------------
  alpha Z        PSCENC =        45.44424880
  Ewald energy   TEWEN  =     -1112.25898815
  -Hartree energ DENC   =     -1256.11241324
  -exchange      EXHF   =         0.00000000
  -V(xc)+E(xc)   XCENC  =       169.17464131
  PAW double counting   =     18655.22971776   -18642.94092990
  entropy T*S    EENTRO =        -0.00000000
  eigenvalues    EBANDS =      -260.57107515
  atomic energy  EATOM  =      2317.50542136
  ---------------------------------------------------
  free energy    TOTEN  =       -84.52937721 eV

  energy without entropy =      -84.52937721  energy(sigma->0) =      -84.52937721


--------------------------------------------------------------------------------------------------------




--------------------------------------- Iteration      1(   7)  ---------------------------------------


    POTLOK:  cpu time      0.0153: real time      0.0153
    SETDIJ:  cpu time      0.0017: real time      0.0017
    TRIAL :  cpu time      3.8955: real time      3.8976
    CORREC:  cpu time      2.2801: real time      2.2817
    CHARGE:  cpu time      0.0858: real time      0.0858
    --------------------------------------------
      LOOP:  cpu time      6.2921: real time      6.3127

 eigenvalue-minimisations  :     0
 total energy-change (2. order) :-0.9742751E+01  (-0.7937810E+00)
 number of electron      47.9999999 magnetization 
 augmentation part        0.0579629 magnetization 

 Free energy of the ion-electron system (eV)
  ---------------------------------------------------
  alpha Z        PSCENC =        45.44424880
  Ewald energy   TEWEN  =     -1112.25898815
  -Hartree energ DENC   =     -1134.63829114
  -exchange      EXHF   =         0.00000000
  -V(xc)+E(xc)   XCENC  =       162.11985882
  PAW double counting   =     34264.16238564   -34250.51920145
  entropy T*S    EENTRO =        -0.00000000
  eigenvalues    EBANDS =      -386.08756249
  atomic energy  EATOM  =      2317.50542136
  ---------------------------------------------------
  free energy    TOTEN  =       -94.27212861 eV

  energy without entropy =      -94.27212861  energy(sigma->0) =      -94.27212861


--------------------------------------------------------------------------------------------------------




--------------------------------------- Iteration      1(   8)  ---------------------------------------


    POTLOK:  cpu time      0.0148: real time      0.0148
    SETDIJ:  cpu time      0.0017: real time      0.0017
    TRIAL :  cpu time      3.8815: real time      3.8835
    CORREC:  cpu time      2.2808: real time      2.2819
    CHARGE:  cpu time      0.0839: real time      0.0839
    --------------------------------------------
      LOOP:  cpu time      6.2755: real time      6.2956

 eigenvalue-minimisations  :     0
 total energy-change (2. order) :-0.7926165E+00  (-0.6269045E-01)
 number of electron      47.9999999 magnetization 
 augmentation part        0.0549272 magnetization 

 Free energy of the ion-electron system (eV)
  ---------------------------------------------------
  alpha Z        PSCENC =        45.44424880
  Ewald energy   TEWEN  =     -1112.25898815
  -Hartree energ DENC   =     -1116.00404294
  -exchange      EXHF   =         0.00000000
  -V(xc)+E(xc)   XCENC  =       161.02156767
  PAW double counting   =     25956.59888205   -25943.04780055
  entropy T*S    EENTRO =        -0.00000000
  eigenvalues    EBANDS =      -404.32403335
  atomic energy  EATOM  =      2317.50542136
  ---------------------------------------------------
  free energy    TOTEN  =       -95.06474510 eV

  energy without entropy =      -95.06474510  energy(sigma->0) =      -95.06474510


--------------------------------------------------------------------------------------------------------




--------------------------------------- Iteration      1(   9)  ---------------------------------------


    POTLOK:  cpu time      0.0141: real time      0.0141
    SETDIJ:  cpu time      0.0017: real time      0.0017
    TRIAL :  cpu time      3.9229: real time      3.9252
    CORREC:  cpu time      2.2763: real time      2.2774
    CHARGE:  cpu time      0.0843: real time      0.0843
    --------------------------------------------
      LOOP:  cpu time      6.3129: real time      6.3330

 eigenvalue-minimisations  :     0
 total energy-change (2. order) :-0.6261940E-01  (-0.7285879E-02)
 number of electron      47.9999999 magnetization 
 augmentation part        0.0541574 magnetization 

 Free energy of the ion-electron system (eV)
  ---------------------------------------------------
  alpha Z        PSCENC =        45.44424880
  Ewald energy   TEWEN  =     -1112.25898815
  -Hartree energ DENC   =     -1112.13494706
  -exchange      EXHF   =         0.00000000
  -V(xc)+E(xc)   XCENC  =       160.78881810
  PAW double counting   =     25067.66266906   -25054.08494317
  entropy T*S    EENTRO =        -0.00000000
  eigenvalues    EBANDS =      -408.04964346
  atomic energy  EATOM  =      2317.50542136
  ---------------------------------------------------
  free energy    TOTEN  =       -95.12736450 eV

  energy without entropy =      -95.12736450  energy(sigma->0) =      -95.12736450


--------------------------------------------------------------------------------------------------------




--------------------------------------- Iteration      1(  10)  ---------------------------------------


    POTLOK:  cpu time      0.0147: real time      0.0147
    SETDIJ:  cpu time      0.0017: real time      0.0017
    TRIAL :  cpu time      3.8702: real time      3.8729
    CORREC:  cpu time      2.2739: real time      2.2756
    CHARGE:  cpu time      0.0838: real time      0.0838
    --------------------------------------------
      LOOP:  cpu time      6.2591: real time      6.2794

 eigenvalue-minimisations  :     0
 total energy-change (2. order) :-0.7268912E-02  (-0.1211859E-02)
 number of electron      47.9999999 magnetization 
 augmentation part        0.0533894 magnetization 

 Free energy of the ion-electron system (eV)
  ---------------------------------------------------
  alpha Z        PSCENC =        45.44424880
  Ewald energy   TEWEN  =     -1112.25898815
  -Hartree energ DENC   =     -1112.64037544
  -exchange      EXHF   =         0.00000000
  -V(xc)+E(xc)   XCENC  =       160.80358304
  PAW double counting   =     25190.78040317   -25177.20374194
  entropy T*S    EENTRO =        -0.00000000
  eigenvalues    EBANDS =      -407.56518426
  atomic energy  EATOM  =      2317.50542136
  ---------------------------------------------------
  free energy    TOTEN  =       -95.13463342 eV

  energy without entropy =      -95.13463342  energy(sigma->0) =      -95.13463342


--------------------------------------------------------------------------------------------------------




--------------------------------------- Iteration      1(  11)  ---------------------------------------


    POTLOK:  cpu time      0.0146: real time      0.0146
    SETDIJ:  cpu time      0.0017: real time      0.0017
    TRIAL :  cpu time      3.9090: real time      3.9116
    CORREC:  cpu time      2.2726: real time      2.2738
    CHARGE:  cpu time      0.1037: real time      0.1037
    --------------------------------------------
      LOOP:  cpu time      6.3153: real time      6.3359

 eigenvalue-minimisations  :     0
 total energy-change (2. order) :-0.1211100E-02  (-0.1347055E-03)
 number of electron      47.9999999 magnetization 
 augmentation part        0.0539579 magnetization 

 Free energy of the ion-electron system (eV)
  ---------------------------------------------------
  alpha Z        PSCENC =        45.44424880
  Ewald energy   TEWEN  =     -1112.25898815
  -Hartree energ DENC   =     -1112.48584523
  -exchange      EXHF   =         0.00000000
  -V(xc)+E(xc)   XCENC  =       160.79123490
  PAW double counting   =     25279.05007196   -25265.46819771
  entropy T*S    EENTRO =        -0.00000000
  eigenvalues    EBANDS =      -407.71379045
  atomic energy  EATOM  =      2317.50542136
  ---------------------------------------------------
  free energy    TOTEN  =       -95.13584452 eV

  energy without entropy =      -95.13584452  energy(sigma->0) =      -95.13584452


--------------------------------------------------------------------------------------------------------




--------------------------------------- Iteration      1(  12)  ---------------------------------------


    POTLOK:  cpu time      0.0188: real time      0.0188
    SETDIJ:  cpu time      0.0017: real time      0.0017
    TRIAL :  cpu time      3.8881: real time      3.8909
    CORREC:  cpu time      2.2733: real time      2.2745
    CHARGE:  cpu time      0.0842: real time      0.0842
    --------------------------------------------
      LOOP:  cpu time      6.2797: real time      6.2996

 eigenvalue-minimisations  :     0
 total energy-change (2. order) :-0.1377085E-03  (-0.1005719E-04)
 number of electron      47.9999999 magnetization 
 augmentation part        0.0539650 magnetization 

 Free energy of the ion-electron system (eV)
  ---------------------------------------------------
  alpha Z        PSCENC =        45.44424880
  Ewald energy   TEWEN  =     -1112.25898815
  -Hartree energ DENC   =     -1112.52942369
  -exchange      EXHF   =         0.00000000
  -V(xc)+E(xc)   XCENC  =       160.79260814
  PAW double counting   =     25233.88899976   -25220.30992584
  entropy T*S    EENTRO =        -0.00000000
  eigenvalues    EBANDS =      -407.66892261
  atomic energy  EATOM  =      2317.50542136
  ---------------------------------------------------
  free energy    TOTEN  =       -95.13598222 eV

  energy without entropy =      -95.13598222  energy(sigma->0) =      -95.13598222


--------------------------------------------------------------------------------------------------------




--------------------------------------- Iteration      1(  13)  ---------------------------------------


    POTLOK:  cpu time      0.0139: real time      0.0139
    SETDIJ:  cpu time      0.0017: real time      0.0017
    TRIAL :  cpu time      3.8748: real time      3.8770
    CORREC:  cpu time      2.2716: real time      2.2727
    CHARGE:  cpu time      0.0843: real time      0.0848
    --------------------------------------------
      LOOP:  cpu time      6.2607: real time      6.2799

 eigenvalue-minimisations  :     0
 total energy-change (2. order) :-0.1037914E-04  (-0.2032310E-05)
 number of electron      47.9999999 magnetization 
 augmentation part        0.0539645 magnetization 

 Free energy of the ion-electron system (eV)
  ---------------------------------------------------
  alpha Z        PSCENC =        45.44424880
  Ewald energy   TEWEN  =     -1112.25898815
  -Hartree energ DENC   =     -1112.50760590
  -exchange      EXHF   =         0.00000000
  -V(xc)+E(xc)   XCENC  =       160.79145756
  PAW double counting   =     25237.72798668   -25224.14860728
  entropy T*S    EENTRO =        -0.00000000
  eigenvalues    EBANDS =      -407.68990568
  atomic energy  EATOM  =      2317.50542136
  ---------------------------------------------------
  free energy    TOTEN  =       -95.13599260 eV

  energy without entropy =      -95.13599260  energy(sigma->0) =      -95.13599260


--------------------------------------------------------------------------------------------------------




--------------------------------------- Iteration      1(  14)  ---------------------------------------


    POTLOK:  cpu time      0.0149: real time      0.0149
    SETDIJ:  cpu time      0.0017: real time      0.0017
    TRIAL :  cpu time      3.9211: real time      3.9236
    CORREC:  cpu time      2.3097: real time      2.3111
    CHARGE:  cpu time      0.0884: real time      0.0884
    --------------------------------------------
      LOOP:  cpu time      6.3492: real time      6.3699

 eigenvalue-minimisations  :     0
 total energy-change (2. order) :-0.1926368E-05  (-0.2503196E-06)
 number of electron      47.9999999 magnetization 
 augmentation part        0.0539670 magnetization 

 Free energy of the ion-electron system (eV)
  ---------------------------------------------------
  alpha Z        PSCENC =        45.44424880
  Ewald energy   TEWEN  =     -1112.25898815
  -Hartree energ DENC   =     -1112.51417950
  -exchange      EXHF   =         0.00000000
  -V(xc)+E(xc)   XCENC  =       160.79215633
  PAW double counting   =     25242.67554730   -25229.09616333
  entropy T*S    EENTRO =        -0.00000000
  eigenvalues    EBANDS =      -407.68403735
  atomic energy  EATOM  =      2317.50542136
  ---------------------------------------------------
  free energy    TOTEN  =       -95.13599453 eV

  energy without entropy =      -95.13599453  energy(sigma->0) =      -95.13599453


--------------------------------------------------------------------------------------------------------




--------------------------------------- Iteration      1(  15)  ---------------------------------------


    POTLOK:  cpu time      0.0179: real time      0.0179
    SETDIJ:  cpu time      0.0017: real time      0.0017
    TRIAL :  cpu time      3.8894: real time      3.8918
    CORREC:  cpu time      2.2715: real time      2.2726
    CHARGE:  cpu time      0.0848: real time      0.0848
    --------------------------------------------
      LOOP:  cpu time      6.2940: real time      6.2977

 eigenvalue-minimisations  :     0
 total energy-change (2. order) :-0.2625675E-06  (-0.2971524E-07)
 number of electron      47.9999999 magnetization 
 augmentation part        0.0539711 magnetization 

 Free energy of the ion-electron system (eV)
  ---------------------------------------------------
  alpha Z        PSCENC =        45.44424880
  Ewald energy   TEWEN  =     -1112.25898815
  -Hartree energ DENC   =     -1112.51248436
  -exchange      EXHF   =         0.00000000
  -V(xc)+E(xc)   XCENC  =       160.79209316
  PAW double counting   =     25242.19217127   -25228.61275483
  entropy T*S    EENTRO =        -0.00000000
  eigenvalues    EBANDS =      -407.68570205
  atomic energy  EATOM  =      2317.50542136
  ---------------------------------------------------
  free energy    TOTEN  =       -95.13599479 eV

  energy without entropy =      -95.13599479  energy(sigma->0) =      -95.13599479


--------------------------------------------------------------------------------------------------------




--------------------------------------- Iteration      1(  16)  ---------------------------------------


    POTLOK:  cpu time      0.0146: real time      0.0146
    SETDIJ:  cpu time      0.0017: real time      0.0017
    TRIAL :  cpu time      3.8722: real time      3.8742
    CORREC:  cpu time      2.2802: real time      2.2812
    EDDIAG:  cpu time      2.2286: real time      2.2306
    CHARGE:  cpu time      0.0832: real time      0.0832
    --------------------------------------------
      LOOP:  cpu time      8.4935: real time      8.5165

 eigenvalue-minimisations  :     0
 total energy-change (2. order) :-0.2443630E-07  (-0.8418509E-08)
 number of electron      47.9999999 magnetization 
 augmentation part        0.0539731 magnetization 

 Free energy of the ion-electron system (eV)
  ---------------------------------------------------
  alpha Z        PSCENC =        45.44424880
  Ewald energy   TEWEN  =     -1112.25898815
  -Hartree energ DENC   =     -1112.51324451
  -exchange      EXHF   =         0.00000000
  -V(xc)+E(xc)   XCENC  =       160.79212509
  PAW double counting   =     25241.49477779   -25227.91538086
  entropy T*S    EENTRO =        -0.00000000
  eigenvalues    EBANDS =      -407.68495435
  atomic energy  EATOM  =      2317.50542136
  ---------------------------------------------------
  free energy    TOTEN  =       -95.13599482 eV

  energy without entropy =      -95.13599482  energy(sigma->0) =      -95.13599482


--------------------------------------------------------------------------------------------------------


  average scaling for gradient   1.3633


 average (electrostatic) potential at core
  the test charge radii are     0.5770  0.5955  0.5902  0.4325
  (the norm of the test charge is              1.0000)
       1 -84.2095       2 -84.2095       3-113.6524       4-113.6524       5 -98.7651
[...]
     58      19.7711      0.00000
     59      20.1327      0.00000
     60      20.6989      0.00000
     61      20.9547      0.00000
     62      21.3984      0.00000
     63      21.7993      0.00000
     64      22.2472      0.00000
     65      22.5743      0.00000
     66      23.4953      0.00000
     67      23.7568      0.00000
     68      23.7726      0.00000
     69      24.3936      0.00000
     70      24.5850      0.00000
     71      24.8777      0.00000
     72      25.3851      0.00000
     73      25.8788      0.00000
     74      25.9365      0.00000
     75      26.3568      0.00000
     76      26.7266      0.00000
     77      27.0423      0.00000
     78      27.2889      0.00000
     79      27.8290      0.00000
     80      28.1365      0.00000
     81      28.5599      0.00000
     82      28.7753      0.00000
     83      29.1432      0.00000
     84      29.6122      0.00000
     85      29.8330      0.00000
     86      30.3387      0.00000
     87      30.5614      0.00000
     88      30.9756      0.00000
     89      31.3900      0.00000
     90      31.4919      0.00000
     91      31.7771      0.00000
     92      31.8924      0.00000
     93      32.3675      0.00000
     94      32.8882      0.00000
     95      33.2234      0.00000
     96      33.4489      0.00000
     97      33.7987      0.00000
     98      34.0329      0.00000
     99      34.3656      0.00000
    100      34.4746      0.00000
    101      34.7792      0.00000
    102      35.0188      0.00000
    103      35.2949      0.00000
    104      35.9214      0.00000
    105      36.1391      0.00000
    106      36.5706      0.00000
    107      36.7461      0.00000
    108      37.1080      0.00000
    109      37.7781      0.00000
    110      38.0566      0.00000
    111      38.1827      0.00000
    112      38.6758      0.00000
    113      39.1905      0.00000
    114      39.3926      0.00000
    115      39.9238      0.00000
    116      40.0859      0.00000
    117      40.4419      0.00000
    118      40.8692      0.00000
    119      41.0354      0.00000
    120      41.4200      0.00000
    121      41.5956      0.00000
    122      42.0097      0.00000
    123      42.2810      0.00000
    124      42.8614      0.00000
    125      42.9584      0.00000
    126      43.3632      0.00000
    127      43.7228      0.00000
    128      43.8175      0.00000

 k-point    75 :       0.4000    0.4000    0.5000
  band No.  band energies     occupation 
      1     -20.8610      2.00000
      2     -20.8475      2.00000
      3     -17.8458      2.00000
      4     -17.8061      2.00000
      5     -16.5245      2.00000
      6     -16.5151      2.00000
      7      -9.8834      2.00000
      8      -9.8533      2.00000
      9      -8.3890      2.00000
     10      -8.3855      2.00000
     11      -7.5837      2.00000
     12      -7.5620      2.00000
     13      -6.6168      2.00000
     14      -6.5973      2.00000
     15      -5.8284      2.00000
     16      -5.7164      2.00000
     17      -5.0835      2.00000
     18      -5.0630      2.00000
     19      -1.5608      2.00000
     20      -1.5291      2.00000
     21      -1.0391      2.00000
     22      -1.0132      2.00000
     23      -0.8595      2.00000
     24      -0.7980      2.00000
     25       5.4973      0.00000
     26       5.5184      0.00000
     27       7.3572      0.00000
     28       7.7210      0.00000
     29       8.0541      0.00000
     30       8.1823      0.00000
     31       8.4382      0.00000
     32       8.6559      0.00000
     33       9.0275      0.00000
     34       9.2100      0.00000
     35      10.6233      0.00000
     36      11.0888      0.00000
     37      11.2291      0.00000
     38      11.5153      0.00000
     39      12.1606      0.00000
     40      12.4037      0.00000
     41      12.5205      0.00000
     42      12.7090      0.00000
     43      13.3157      0.00000
     44      13.7293      0.00000
     45      13.7405      0.00000
     46      14.0413      0.00000
     47      15.6876      0.00000
     48      15.7479      0.00000
     49      17.1702      0.00000
     50      17.2798      0.00000
     51      17.6999      0.00000
     52      17.9947      0.00000
     53      18.3273      0.00000
     54      18.4685      0.00000
     55      18.6389      0.00000
     56      19.1108      0.00000
     57      19.5027      0.00000
     58      19.8678      0.00000
     59      20.1749      0.00000
     60      20.6885      0.00000
     61      21.6495      0.00000
     62      21.9479      0.00000
     63      22.7732      0.00000
     64      22.8739      0.00000
     65      22.9138      0.00000
     66      23.6768      0.00000
     67      24.1296      0.00000
     68      24.1467      0.00000
     69      24.6160      0.00000
     70      24.6730      0.00000
     71      25.1516      0.00000
     72      25.6186      0.00000
     73      25.7679      0.00000
     74      25.8338      0.00000
     75      25.9133      0.00000
     76      26.3273      0.00000
     77      26.8929      0.00000
     78      27.0776      0.00000
     79      27.1113      0.00000
     80      27.5019      0.00000
     81      28.3087      0.00000
     82      28.3215      0.00000
     83      28.8649      0.00000
     84      29.5309      0.00000
     85      29.6957      0.00000
     86      29.7961      0.00000
     87      30.8995      0.00000
     88      30.9138      0.00000
     89      31.2829      0.00000
     90      31.2874      0.00000
     91      31.9308      0.00000
     92      32.1489      0.00000
     93      32.5135      0.00000
     94      32.8739      0.00000
     95      33.2034      0.00000
     96      33.3180      0.00000
     97      33.5798      0.00000
     98      33.5821      0.00000
     99      34.0523      0.00000
    100      34.4755      0.00000
    101      34.9859      0.00000
    102      35.0414      0.00000
    103      35.3431      0.00000
    104      35.7803      0.00000
    105      36.1245      0.00000
    106      36.9977      0.00000
    107      37.3003      0.00000
    108      37.6264      0.00000
    109      37.7318      0.00000
    110      38.4012      0.00000
    111      38.4037      0.00000
    112      39.4660      0.00000
    113      39.6393      0.00000
    114      39.9995      0.00000
    115      40.1748      0.00000
    116      40.3708      0.00000
    117      40.4823      0.00000
    118      40.6150      0.00000
    119      40.8777      0.00000
    120      40.9250      0.00000
    121      41.3992      0.00000
    122      41.8735      0.00000
    123      42.1039      0.00000
    124      42.1058      0.00000
    125      42.4309      0.00000
    126      43.0889      0.00000
    127      43.2904      0.00000
    128      43.4442      0.00000

 k-point    76 :      -0.4000    0.4000    0.5000
  band No.  band energies     occupation 
      1     -20.8610      2.00000
      2     -20.8475      2.00000
      3     -17.8458      2.00000
      4     -17.8061      2.00000
      5     -16.5245      2.00000
      6     -16.5151      2.00000
      7      -9.8834      2.00000
      8      -9.8533      2.00000
      9      -8.3890      2.00000
     10      -8.3855      2.00000
     11      -7.5837      2.00000
     12      -7.5620      2.00000
     13      -6.6168      2.00000
     14      -6.5973      2.00000
     15      -5.8284      2.00000
     16      -5.7164      2.00000
     17      -5.0835      2.00000
     18      -5.0630      2.00000
     19      -1.5608      2.00000
     20      -1.5291      2.00000
     21      -1.0391      2.00000
     22      -1.0132      2.00000
     23      -0.8595      2.00000
     24      -0.7980      2.00000
     25       5.4973      0.00000
     26       5.5184      0.00000
     27       7.3572      0.00000
     28       7.7210      0.00000
     29       8.0541      0.00000
     30       8.1823      0.00000
     31       8.4382      0.00000
     32       8.6559      0.00000
     33       9.0275      0.00000
     34       9.2100      0.00000
     35      10.6233      0.00000
     36      11.0888      0.00000
     37      11.2291      0.00000
     38      11.5153      0.00000
     39      12.1606      0.00000
     40      12.4037      0.00000
     41      12.5205      0.00000
     42      12.7089      0.00000
     43      13.3157      0.00000
     44      13.7293      0.00000
     45      13.7405      0.00000
     46      14.0413      0.00000
     47      15.6876      0.00000
     48      15.7479      0.00000
     49      17.1702      0.00000
     50      17.2798      0.00000
     51      17.6999      0.00000
     52      17.9947      0.00000
     53      18.3273      0.00000
     54      18.4685      0.00000
     55      18.6389      0.00000
     56      19.1108      0.00000
     57      19.5027      0.00000
     58      19.8678      0.00000
     59      20.1749      0.00000
     60      20.6885      0.00000
     61      21.6495      0.00000
     62      21.9479      0.00000
     63      22.7732      0.00000
     64      22.8739      0.00000
     65      22.9138      0.00000
     66      23.6768      0.00000
     67      24.1296      0.00000
     68      24.1467      0.00000
     69      24.6160      0.00000
     70      24.6730      0.00000
     71      25.1516      0.00000
     72      25.6186      0.00000
     73      25.7679      0.00000
     74      25.8338      0.00000
     75      25.9133      0.00000
     76      26.3273      0.00000
     77      26.8929      0.00000
     78      27.0776      0.00000
     79      27.1113      0.00000
     80      27.5019      0.00000
     81      28.3087      0.00000
     82      28.3215      0.00000
     83      28.8649      0.00000
     84      29.5309      0.00000
     85      29.6957      0.00000
     86      29.7961      0.00000
     87      30.8995      0.00000
     88      30.9138      0.00000
     89      31.2829      0.00000
     90      31.2874      0.00000
     91      31.9308      0.00000
     92      32.1489      0.00000
     93      32.5135      0.00000
     94      32.8739      0.00000
     95      33.2034      0.00000
     96      33.3180      0.00000
     97      33.5798      0.00000
     98      33.5821      0.00000
     99      34.0523      0.00000
    100      34.4755      0.00000
    101      34.9859      0.00000
    102      35.0414      0.00000
    103      35.3431      0.00000
    104      35.7803      0.00000
    105      36.1245      0.00000
    106      36.9977      0.00000
    107      37.3003      0.00000
    108      37.6264      0.00000
    109      37.7318      0.00000
    110      38.4012      0.00000
    111      38.4037      0.00000
    112      39.4660      0.00000
    113      39.6393      0.00000
    114      39.9995      0.00000
    115      40.1748      0.00000
    116      40.3708      0.00000
    117      40.4824      0.00000
    118      40.6150      0.00000
    119      40.8777      0.00000
    120      40.9250      0.00000
    121      41.3992      0.00000
    122      41.8735      0.00000
    123      42.1039      0.00000
    124      42.1057      0.00000
    125      42.4309      0.00000
    126      43.0915      0.00000
    127      43.2899      0.00000
    128      43.4498      0.00000


--------------------------------------------------------------------------------------------------------


 soft charge-density along one line, spin component           1
         0         1         2         3         4         5         6         7         8         9
 total charge-density along one line

 pseudopotential strength for first ion, spin component:           1
 12.660  21.304  -0.000  -0.000  -0.000  -0.000  -0.001  -0.000
 21.304  35.849  -0.000  -0.001  -0.000  -0.000  -0.001  -0.000
 -0.000  -0.000  -3.060   0.000   0.000  -5.483   0.000   0.001
 -0.000  -0.001   0.000  -3.060   0.000   0.000  -5.483   0.000
 -0.000  -0.000   0.000   0.000  -3.060   0.001   0.000  -5.483
 -0.000  -0.000  -5.483   0.000   0.001  -9.802   0.000   0.001
 -0.001  -0.001   0.000  -5.483   0.000   0.000  -9.802   0.000
 -0.000  -0.000   0.001   0.000  -5.483   0.001   0.000  -9.802
 total augmentation occupancy for first ion, spin component:           1
  9.347  -3.564  -0.000   0.622  -0.000   0.000  -0.326   0.000
 -3.564   1.433   0.000  -0.340   0.000  -0.000   0.181  -0.000
 -0.000   0.000   5.796  -0.000   2.405  -1.955   0.000  -0.996
  0.622  -0.340  -0.000   9.350  -0.000   0.000  -3.507   0.000
 -0.000   0.000   2.405  -0.000   5.796  -0.996   0.000  -1.955
  0.000  -0.000  -1.955   0.000  -0.996   0.675  -0.000   0.403
 -0.326   0.181   0.000  -3.507   0.000  -0.000   1.348  -0.000
  0.000  -0.000  -0.996   0.000  -1.955   0.403  -0.000   0.675


------------------------ aborting loop because EDIFF is reached ----------------------------------------


    FORLOC:  cpu time      0.0035: real time      0.0035
    FORNL :  cpu time      0.7527: real time      0.7533
    FORCOR:  cpu time      0.0154: real time      0.0156
    OFIELD:  cpu time      0.0026: real time      0.0028

 ---------------------------------------------------------------------------------------------

         DFTD3 V3.0 Rev 1        
 IVDW         = 11
 DF rpbe      
 parameters
 VDW_S6       =    1.0000
 VDW_S8       =    0.5140
 VDW_SR       =    0.8720
 rs18     =    1.0000
 alpha6   =   14.0000
 alpha8   =   16.0000
 k1-k3    =   16.0000    1.3333   -4.0000
 VDW_RADIUS   =   50.2022 A
 VDW_CNRADIUS =   21.1671 A
 Edisp (eV)   -1.53725

 E6    (eV) :    -1.3179
 E8    (eV) :    -0.2193
 % E8        : 14.27
    FORVDW:  cpu time      0.2380: real time      0.2420

 VOLUME and BASIS-vectors are now :
 -----------------------------------------------------------------------------
  energy-cutoff  :     1000.00
  volume of cell :      145.06
      direct lattice vectors                 reciprocal lattice vectors
     5.565000000  0.000000000  0.000000000     0.179694519  0.000000000  0.000000000
     0.000000000  5.565000000  0.000000000     0.000000000  0.179694519  0.000000000
     0.000000000  0.000000000  4.684000000     0.000000000  0.000000000  0.213492741

  length of vectors
     5.565000000  5.565000000  4.684000000     0.179694519  0.179694519  0.213492741


 FORCES acting on ions:
    Electron-Ion                     Ewald-Force                    Non-Local-Force
 -----------------------------------------------------------------------------------------------
   -.255E-03 0.463E-05 0.341E+02   0.252E-03 0.254E-06 -.337E+02   -.311E-04 -.361E-04 -.472E+00
   -.143E-03 0.166E-03 -.341E+02   0.164E-03 -.164E-03 0.337E+02   -.251E-05 -.103E-04 0.472E+00
   0.261E-04 0.328E-03 -.163E+03   -.117E-03 -.397E-03 0.208E+03   0.106E-03 0.116E-03 -.454E+02
   -.142E-03 -.277E-03 0.163E+03   0.126E-03 0.294E-03 -.208E+03   0.299E-04 0.105E-04 0.454E+02
   -.798E+02 -.798E+02 0.563E+02   0.830E+02 0.830E+02 -.581E+02   -.317E+01 -.317E+01 0.163E+01
   0.798E+02 0.798E+02 0.563E+02   -.830E+02 -.830E+02 -.581E+02   0.317E+01 0.317E+01 0.163E+01
   -.798E+02 0.798E+02 -.563E+02   0.830E+02 -.830E+02 0.581E+02   -.317E+01 0.317E+01 -.163E+01
   0.798E+02 -.798E+02 -.563E+02   -.830E+02 0.830E+02 0.581E+02   0.317E+01 -.317E+01 -.163E+01
   -.322E+02 -.322E+02 -.226E+02   0.367E+02 0.367E+02 0.261E+02   -.460E+01 -.460E+01 -.356E+01
   0.322E+02 0.322E+02 -.226E+02   -.367E+02 -.367E+02 0.261E+02   0.460E+01 0.460E+01 -.356E+01
   -.322E+02 0.322E+02 0.226E+02   0.367E+02 -.367E+02 -.261E+02   -.460E+01 0.460E+01 0.356E+01
   0.322E+02 -.322E+02 0.226E+02   -.367E+02 0.367E+02 -.261E+02   0.460E+01 -.460E+01 0.356E+01
   -.101E+02 -.101E+02 0.562E+02   0.101E+02 0.101E+02 -.635E+02   0.102E-01 0.101E-01 0.746E+01
   0.101E+02 0.101E+02 0.562E+02   -.101E+02 -.101E+02 -.635E+02   -.102E-01 -.101E-01 0.746E+01
   -.101E+02 0.101E+02 -.562E+02   0.101E+02 -.101E+02 0.635E+02   0.102E-01 -.101E-01 -.746E+01
   0.101E+02 -.101E+02 -.562E+02   -.101E+02 0.101E+02 0.635E+02   -.102E-01 0.101E-01 -.746E+01
 -----------------------------------------------------------------------------------------------
   0.485E-04 0.587E-04 -.239E-06   -.604E-13 0.320E-13 0.121E-12   -.479E-04 0.633E-04 0.156E-06


 POSITION                                       TOTAL-FORCE (eV/Angst)
 -----------------------------------------------------------------------------------
      0.00000      2.37694      1.52726        -0.000034     -0.000036      0.111357
      2.78250      5.15944      3.15674         0.000018     -0.000013     -0.111371
      5.56500      2.37694      2.80034         0.000015      0.000039      0.074435
      2.78250      5.15944      1.88366         0.000014      0.000020     -0.074444
      0.81701      3.19394      0.82848         0.175928      0.175930     -0.196937
      4.74799      1.55995      0.82848        -0.176043     -0.176046     -0.196992
      3.59951      4.34244      3.85552         0.175939     -0.175940      0.196935
      1.96549      0.41144      3.85552        -0.176014      0.176017      0.196982
      1.44738      3.82433      1.32525        -0.070321     -0.070340     -0.069047
      4.11762      0.92955      1.32525         0.070436      0.070426     -0.069087
      4.22988      3.71205      3.35875        -0.070359      0.070348      0.069062
      1.33512      1.04183      3.35875         0.070392     -0.070411      0.069082
      0.81112      3.18806      4.49318         0.027529      0.027534      0.114116
      4.75388      1.56582      4.49317        -0.027512     -0.027515      0.114207
      3.59362      4.34832      0.19083         0.027528     -0.027533     -0.114134
      1.97138      0.40556      0.19082        -0.027517      0.027520     -0.114164
 -----------------------------------------------------------------------------------
    total drift:                                0.000001      0.000122     -0.000000


--------------------------------------------------------------------------------------------------------



  FREE ENERGIE OF THE ION-ELECTRON SYSTEM (eV)
  ---------------------------------------------------
  free  energy   TOTEN  =       -96.67324755 eV

  energy  without entropy=      -96.67324755  energy(sigma->0) =      -96.67324755



--------------------------------------------------------------------------------------------------------


    POTLOK:  cpu time      0.0242: real time      0.0242


--------------------------------------------------------------------------------------------------------


 stress matrix after NEB project (eV)
     -1.72795      0.00000     -0.00000
      0.00000     -1.72796      0.00000
     -0.00000      0.00000     -1.58894
  FORCES: max atom, RMS     0.317472    0.186365
  FORCE total and by dimension    0.745462    0.196992
  Stress total and by dimension    2.914864    1.727964
     LOOP+:  cpu time    563.2935: real time    563.8325
    4ORBIT:  cpu time      0.0000: real time      0.0000

 total amount of memory used by VASP MPI-rank0   160409. kBytes
=======================================================================

   base      :      30000. kBytes
   nonl-proj :     103448. kBytes
   fftplans  :       2999. kBytes
   grid      :       4327. kBytes
   one-center:         24. kBytes
   wavefun   :      19611. kBytes

  
  
 General timing and accounting informations for this job:
 ========================================================
  
                  Total CPU time used (sec):      590.257
                            User time (sec):      588.247
                          System time (sec):        2.011
                         Elapsed time (sec):      594.505
  
                   Maximum memory used (kb):      399112.
                   Average memory used (kb):          N/A
  
                          Minor page faults:        74145
                          Major page faults:         1193
                 Voluntary context switches:         6335
