 vasp.6.4.1 05Apr23 (build Jun  6 2023 14:36:51) complex                         
 executed on        HPECrayEX_GCC date 2024.08.21  08:39:37
 running  128 mpi-ranks, with    1 threads/rank, on    1 nodes
 distrk:  each k-point on  128 cores,    1 groups
 distr:  one band on NCORE=  32 cores,    4 groups


--------------------------------------------------------------------------------------------------------


 INCAR:
   ALGO = Conjugate
   NPAR = 4
   ISMEAR = 0
   SIGMA = 0.01
   PREC = Accurate
   EDIFF = 1E-7
   ENCUT = 1000
   ISIF = 0
   GGA = OR
   LUSE_VDW = .TRUE.
   AGGAC = 0.0000
   LASPH = .TRUE.
   LWAVE = .FALSE.
   LCHARGE = .FALSE.

 POTCAR:    PAW_PBE C_h 06Feb2004                 
 POTCAR:    PAW_PBE O_h 06Feb2004                 
 POTCAR:    PAW_PBE N_h 06Feb2004                 
 POTCAR:    PAW_PBE H_h 06Feb2004                 
 -----------------------------------------------------------------------------
|                                                                             |
|               ----> ADVICE to this user running VASP <----                  |
|                                                                             |
|     You have switched on vdW-DFT.                                           |
|     This routine was written and supplied by Jiri Klimes. We recommend      |
|     that you carefully read and cite the following publications:            |
|       J. Klimes, D.R. Bowler, A. Michelides                                 |
|          J. Phys.: Cond Matt. 22 022201 (2010)                              |
|       J. Klimes, D.R. Bowler, A. Michelides                                 |
|          Phys. Rev. B. 83, 195131 (2011)                                    |
|     and references therein.                                                 |
|                                                                             |
 -----------------------------------------------------------------------------

 POTCAR:    PAW_PBE C_h 06Feb2004                 
   VRHFIN =C: s2p2                                                                                  
   LEXCH  = PE                                                                                      
   EATOM  =   147.1560 eV,   10.8157 Ry                                                             
                                                                                                    
   TITEL  = PAW_PBE C_h 06Feb2004                                                                   
   LULTRA =        F    use ultrasoft PP ?                                                          
   IUNSCR =        1    unscreen: 0-lin 1-nonlin 2-no                                               
   RPACOR =    0.800    partial core radius                                                         
   POMASS =   12.011; ZVAL   =    4.000    mass and valenz                                          
   RCORE  =    1.100    outmost cutoff radius                                                       
   RWIGS  =    1.630; RWIGS  =    0.863    wigner-seitz radius (au A)                               
   ENMAX  =  700.000; ENMIN  =  500.000 eV                                                          
   ICORE  =        2    local potential                                                             
   LCOR   =        T    correct aug charges                                                         
   LPAW   =        T    paw PP                                                                      
   EAUG   =  946.768                                                                                
   DEXC   =    0.000                                                                                
   RMAX   =    1.128    core radius for proj-oper                                                   
   RAUG   =    1.300    factor for augmentation sphere                                              
   RDEP   =    1.162    radius for radial grids                                                     
   RDEPT  =    1.088    core radius for aug-charge                                                  
                                                                                                    
   Atomic configuration                                                                             
    4 entries                                                                                       
     n  l   j            E        occ.                                                              
     1  0  0.50      -273.3789   2.0000                                                             
     2  0  0.50       -13.7508   2.0000                                                             
     2  1  0.50        -5.2854   2.0000                                                             
     3  2  1.50        -5.4423   0.0000                                                             
   Description                                                                                      
     l       E           TYP  RCUT    TYP  RCUT                                                     
     0    -13.7508458     23  1.100                                                                 
     0     -8.2022199     23  1.100                                                                 
     1     -5.2854383     23  1.100                                                                 
     1      1.1560700     23  1.100                                                                 
     2     -5.4423304      7  1.100                                                                 
  local pseudopotential read in
  partial core-charges read in
  partial kinetic energy density read in
  atomic valenz-charges read in
  non local Contribution for L=           0  read in
    real space projection operators read in
  non local Contribution for L=           0  read in
    real space projection operators read in
  non local Contribution for L=           1  read in
    real space projection operators read in
  non local Contribution for L=           1  read in
    real space projection operators read in
    PAW grid and wavefunctions read in

   number of l-projection  operators is LMAX  =           4
   number of lm-projection operators is LMMAX =           8

 POTCAR:    PAW_PBE O_h 06Feb2004                 
   VRHFIN =O: s2p4                                                                                  
   LEXCH  = PE                                                                                      
   EATOM  =   432.3788 eV,   31.7789 Ry                                                             
                                                                                                    
   TITEL  = PAW_PBE O_h 06Feb2004                                                                   
   LULTRA =        F    use ultrasoft PP ?                                                          
   IUNSCR =        1    unscreen: 0-lin 1-nonlin 2-no                                               
   RPACOR =    0.800    partial core radius                                                         
   POMASS =   16.000; ZVAL   =    6.000    mass and valenz                                          
   RCORE  =    1.100    outmost cutoff radius                                                       
   RWIGS  =    1.400; RWIGS  =    0.741    wigner-seitz radius (au A)                               
   ENMAX  =  700.000; ENMIN  =  500.000 eV                                                          
   ICORE  =        2    local potential                                                             
   LCOR   =        T    correct aug charges                                                         
   LPAW   =        T    paw PP                                                                      
   EAUG   =  888.804                                                                                
   DEXC   =    0.000                                                                                
   RMAX   =    1.128    core radius for proj-oper                                                   
   RAUG   =    1.300    factor for augmentation sphere                                              
   RDEP   =    1.125    radius for radial grids                                                     
   RDEPT  =    1.088    core radius for aug-charge                                                  
                                                                                                    
   Atomic configuration                                                                             
    4 entries                                                                                       
     n  l   j            E        occ.                                                              
     1  0  0.50      -514.6923   2.0000                                                             
     2  0  0.50       -23.9615   2.0000                                                             
     2  1  0.50        -9.0305   4.0000                                                             
     3  2  1.50        -9.5241   0.0000                                                             
   Description                                                                                      
     l       E           TYP  RCUT    TYP  RCUT                                                     
     0    -23.9615319     23  1.100                                                                 
     0    -25.3221145     23  1.100                                                                 
     1     -9.0304911     23  1.100                                                                 
     1     -5.4802209     23  1.100                                                                 
     2     -9.5240782      7  1.100                                                                 
  local pseudopotential read in
  partial core-charges read in
  partial kinetic energy density read in
  atomic valenz-charges read in
  non local Contribution for L=           0  read in
    real space projection operators read in
  non local Contribution for L=           0  read in
    real space projection operators read in
  non local Contribution for L=           1  read in
    real space projection operators read in
  non local Contribution for L=           1  read in
    real space projection operators read in
    PAW grid and wavefunctions read in

   number of l-projection  operators is LMAX  =           4
   number of lm-projection operators is LMMAX =           8

 POTCAR:    PAW_PBE N_h 06Feb2004                 
   VRHFIN =N: s2p3                                                                                  
   LEXCH  = PE                                                                                      
   EATOM  =   264.5486 eV,   19.4438 Ry                                                             
                                                                                                    
   TITEL  = PAW_PBE N_h 06Feb2004                                                                   
   LULTRA =        F    use ultrasoft PP ?                                                          
   IUNSCR =        1    unscreen: 0-lin 1-nonlin 2-no                                               
   RPACOR =    0.800    partial core radius                                                         
   POMASS =   14.001; ZVAL   =    5.000    mass and valenz                                          
   RCORE  =    1.100    outmost cutoff radius                                                       
   RWIGS  =    1.480; RWIGS  =    0.783    wigner-seitz radius (au A)                               
   ENMAX  =  700.000; ENMIN  =  500.000 eV                                                          
   ICORE  =        2    local potential                                                             
   LCOR   =        T    correct aug charges                                                         
   LPAW   =        T    paw PP                                                                      
   EAUG   =  904.640                                                                                
   DEXC   =    0.000                                                                                
   RMAX   =    1.127    core radius for proj-oper                                                   
   RAUG   =    1.300    factor for augmentation sphere                                              
   RDEP   =    1.115    radius for radial grids                                                     
   RDEPT  =    1.106    core radius for aug-charge                                                  
                                                                                                    
   Atomic configuration                                                                             
    4 entries                                                                                       
     n  l   j            E        occ.                                                              
     1  0  0.50      -384.7179   2.0000                                                             
     2  0  0.50       -18.5828   2.0000                                                             
     2  1  0.50        -7.0898   3.0000                                                             
     3  2  1.50        -6.8029   0.0000                                                             
   Description                                                                                      
     l       E           TYP  RCUT    TYP  RCUT                                                     
     0    -18.5828117     23  1.100                                                                 
     0    -15.0750597     23  1.100                                                                 
     1     -7.0897851     23  1.100                                                                 
     1     -1.9663412     23  1.100                                                                 
     2     -6.8029130      7  1.100                                                                 
  local pseudopotential read in
  partial core-charges read in
  partial kinetic energy density read in
  kinetic energy density of atom read in
  atomic valenz-charges read in
  non local Contribution for L=           0  read in
    real space projection operators read in
  non local Contribution for L=           0  read in
    real space projection operators read in
  non local Contribution for L=           1  read in
    real space projection operators read in
  non local Contribution for L=           1  read in
    real space projection operators read in
    PAW grid and wavefunctions read in

   number of l-projection  operators is LMAX  =           4
   number of lm-projection operators is LMMAX =           8

 POTCAR:    PAW_PBE H_h 06Feb2004                 
   VRHFIN =H: ultrasoft test                                                                        
   LEXCH  = PE                                                                                      
   EATOM  =    12.4884 eV,    0.9179 Ry                                                             
                                                                                                    
   TITEL  = PAW_PBE H_h 06Feb2004                                                                   
   LULTRA =        F    use ultrasoft PP ?                                                          
   IUNSCR =        0    unscreen: 0-lin 1-nonlin 2-no                                               
   RPACOR =    0.000    partial core radius                                                         
   POMASS =    1.000; ZVAL   =    1.000    mass and valenz                                          
   RCORE  =    0.800    outmost cutoff radius                                                       
   RWIGS  =    0.700; RWIGS  =    0.370    wigner-seitz radius (au A)                               
   ENMAX  =  700.000; ENMIN  =  350.000 eV                                                          
   RCLOC  =    0.701    cutoff for local pot                                                        
   LCOR   =        T    correct aug charges                                                         
   LPAW   =        T    paw PP                                                                      
   EAUG   = 1000.000                                                                                
   RMAX   =    0.819    core radius for proj-oper                                                   
   RAUG   =    1.000    factor for augmentation sphere                                              
   RDEP   =    0.817    radius for radial grids                                                     
   RDEPT  =    0.817    core radius for aug-charge                                                  
                                                                                                    
   Atomic configuration                                                                             
    2 entries                                                                                       
     n  l   j            E        occ.                                                              
     1  0  0.50        -6.4927   1.0000                                                             
     2  1  0.50        -3.4015   0.0000                                                             
   Description                                                                                      
     l       E           TYP  RCUT    TYP  RCUT                                                     
     0     -6.4927493     23  0.800                                                                 
     0      6.8029130     23  0.800                                                                 
     1     -6.8029130     23  0.800                                                                 
  local pseudopotential read in
  atomic valenz-charges read in
  non local Contribution for L=           0  read in
    real space projection operators read in
  non local Contribution for L=           0  read in
    real space projection operators read in
  non local Contribution for L=           1  read in
    real space projection operators read in
    PAW grid and wavefunctions read in

   number of l-projection  operators is LMAX  =           3
   number of lm-projection operators is LMMAX =           5

 -----------------------------------------------------------------------------
|                                                                             |
|               ----> ADVICE to this user running VASP <----                  |
|                                                                             |
|     You enforced a specific xc type in the INCAR file but a different       |
|     type was found in the POTCAR file.                                      |
|     I HOPE YOU KNOW WHAT YOU ARE DOING!                                     |
|                                                                             |
 -----------------------------------------------------------------------------

  PAW_PBE C_h 06Feb2004                 :
 energy of atom  1       EATOM= -147.1560
 kinetic energy error for atom=    0.0031 (will be added to EATOM!!)
  PAW_PBE O_h 06Feb2004                 :
 energy of atom  2       EATOM= -432.3788
 kinetic energy error for atom=    0.0171 (will be added to EATOM!!)
  PAW_PBE N_h 06Feb2004                 :
 energy of atom  3       EATOM= -264.5486
 kinetic energy error for atom=    0.0081 (will be added to EATOM!!)
  PAW_PBE H_h 06Feb2004                 :
 energy of atom  4       EATOM=  -12.4884
 kinetic energy error for atom=    0.0006 (will be added to EATOM!!)


 POSCAR:  C  O  N  H
  positions in cartesian coordinates
  No initial velocities read in
 exchange correlation table for  LEXCH =       41
   RHO(1)=    0.500       N(1)  =     2000
   RHO(2)=  100.500       N(2)  =     4000

 VTST: version 4.1, (05/19/21)

 CHAIN: initializing optimizer
 
 OPT: Using VASP Dynamics algorithm
 CHAIN: Read ICHAIN            0

 POSCAR:  C  O  N  H
  positions in cartesian coordinates
  No initial velocities read in



--------------------------------------------------------------------------------------------------------


 ion  position               nearest neighbor table
   1  0.000  0.427  0.326-   3 1.27   5 1.35   6 1.35
   2  0.500  0.927  0.674-   4 1.27   8 1.35   7 1.35
   3  1.000  0.427  0.598-   1 1.27
   4  0.500  0.927  0.402-   2 1.27
   5  0.147  0.574  0.177-  13 1.02   9 1.02   1 1.35
   6  0.853  0.280  0.177-  14 1.02  10 1.02   1 1.35
   7  0.647  0.780  0.823-  15 1.02  11 1.02   2 1.35
   8  0.353  0.074  0.823-  16 1.02  12 1.02   2 1.35
   9  0.260  0.687  0.283-   5 1.02
  10  0.740  0.167  0.283-   6 1.02
  11  0.760  0.667  0.717-   7 1.02
  12  0.240  0.187  0.717-   8 1.02
  13  0.146  0.573  0.959-   5 1.02
  14  0.854  0.281  0.959-   6 1.02
  15  0.646  0.781  0.041-   7 1.02
  16  0.354  0.073  0.041-   8 1.02

  LATTYP: Found a simple tetragonal cell.
 ALAT       =     5.5650000000
 C/A-ratio  =     0.8416891285
  
  Lattice vectors:
  
 A1 = (   5.5650000000,   0.0000000000,   0.0000000000)
 A2 = (   0.0000000000,   5.5650000000,   0.0000000000)
 A3 = (   0.0000000000,   0.0000000000,   4.6840000000)


Analysis of symmetry for initial positions (statically):
=====================================================================
 Subroutine PRICEL returns:
 Original cell was already a primitive cell.
 

 Routine SETGRP: Setting up the symmetry group for a 
 simple tetragonal supercell.


 Subroutine GETGRP returns: Found  8 space group operations
 (whereof  1 operations were pure point group operations)
 out of a pool of 16 trial point group operations.


The static configuration has the point symmetry C_1 .
 The point group associated with its full space group is D_2d.


Analysis of symmetry for dynamics (positions and initial velocities):
=====================================================================
 Subroutine PRICEL returns:
 Original cell was already a primitive cell.
 

 Routine SETGRP: Setting up the symmetry group for a 
 simple tetragonal supercell.


 Subroutine GETGRP returns: Found  8 space group operations
 (whereof  1 operations were pure point group operations)
 out of a pool of 16 trial point group operations.


The dynamic configuration has the point symmetry C_1 .
 The point group associated with its full space group is D_2d.


 Subroutine INISYM returns: Found  8 space group operations
 (whereof  1 operations are pure point group operations),
 and found     1 'primitive' translations


----------------------------------------------------------------------------------------

                                     Primitive cell                                     

  volume of cell :     145.0598

  direct lattice vectors                    reciprocal lattice vectors
     5.565000000  0.000000000  0.000000000     0.179694519  0.000000000  0.000000000
     0.000000000  5.565000000  0.000000000     0.000000000  0.179694519  0.000000000
     0.000000000  0.000000000  4.684000000     0.000000000  0.000000000  0.213492741

  length of vectors
     5.565000000  5.565000000  4.684000000     0.179694519  0.179694519  0.213492741

  position of ions in fractional coordinates (direct lattice)
     0.000000146  0.427123573  0.326058672
     0.499999930  0.927122909  0.673941525
     0.999999854  0.427123350  0.597852280
     0.499999924  0.927123013  0.402147921
     0.146812264  0.573933227  0.176875004
     0.853187842  0.280313828  0.176875281
     0.646812221  0.780313118  0.823124997
     0.353187759  0.073932713  0.823124742
     0.260085855  0.687210944  0.282931726
     0.739913749  0.167035376  0.282931867
     0.760085891  0.667035345  0.717067948
     0.239913922  0.187210835  0.717067878
     0.145753410  0.572876866  0.959260297
     0.854246226  0.281369506  0.959260096
     0.645753561  0.781369328  0.040739795
     0.354246123  0.072876987  0.040739703

  ion indices of the primitive-cell ions
   primitive index   ion index
                 1           1
                 2           2
                 3           3
                 4           4
                 5           5
                 6           6
                 7           7
                 8           8
                 9           9
                10          10
                11          11
                12          12
                13          13
                14          14
                15          15
                16          16

----------------------------------------------------------------------------------------



 KPOINTS: auto                                    

Automatic generation of k-mesh.
 Grid dimensions read from file:
 generate k-points for:    5    5    6

 Generating k-lattice:

  Cartesian coordinates                     Fractional coordinates (reciprocal lattice)
     0.035938904  0.000000000  0.000000000     0.200000000  0.000000000  0.000000000
     0.000000000  0.035938904  0.000000000     0.000000000  0.200000000  0.000000000
     0.000000000  0.000000000  0.035582124     0.000000000  0.000000000  0.166666667

  Length of vectors
     0.035938904  0.035938904  0.035582124

  Shift w.r.t. Gamma in fractional coordinates (k-lattice)
     0.000000000  0.000000000  0.000000000

 
 Subroutine IBZKPT returns following result:
 ===========================================
 
 Found     24 irreducible k-points:
 
 Following reciprocal coordinates:
            Coordinates               Weight
  0.000000  0.000000  0.000000      1.000000
  0.200000  0.000000  0.000000      4.000000
  0.400000  0.000000  0.000000      4.000000
  0.200000  0.200000  0.000000      4.000000
  0.400000  0.200000  0.000000      8.000000
  0.400000  0.400000  0.000000      4.000000
  0.000000  0.000000  0.166667      2.000000
  0.200000  0.000000  0.166667      8.000000
  0.400000  0.000000  0.166667      8.000000
  0.200000  0.200000  0.166667      8.000000
  0.400000  0.200000  0.166667     16.000000
  0.400000  0.400000  0.166667      8.000000
  0.000000  0.000000  0.333333      2.000000
  0.200000  0.000000  0.333333      8.000000
  0.400000  0.000000  0.333333      8.000000
  0.200000  0.200000  0.333333      8.000000
  0.400000  0.200000  0.333333     16.000000
  0.400000  0.400000  0.333333      8.000000
  0.000000  0.000000  0.500000      1.000000
  0.200000  0.000000  0.500000      4.000000
  0.400000  0.000000  0.500000      4.000000
  0.200000  0.200000  0.500000      4.000000
  0.400000  0.200000  0.500000      8.000000
  0.400000  0.400000  0.500000      4.000000
 
 Following cartesian coordinates:
            Coordinates               Weight
  0.000000  0.000000  0.000000      1.000000
  0.035939  0.000000  0.000000      4.000000
  0.071878  0.000000  0.000000      4.000000
  0.035939  0.035939  0.000000      4.000000
  0.071878  0.035939  0.000000      8.000000
  0.071878  0.071878  0.000000      4.000000
  0.000000  0.000000  0.035582      2.000000
  0.035939  0.000000  0.035582      8.000000
  0.071878  0.000000  0.035582      8.000000
  0.035939  0.035939  0.035582      8.000000
  0.071878  0.035939  0.035582     16.000000
  0.071878  0.071878  0.035582      8.000000
  0.000000  0.000000  0.071164      2.000000
  0.035939  0.000000  0.071164      8.000000
  0.071878  0.000000  0.071164      8.000000
  0.035939  0.035939  0.071164      8.000000
  0.071878  0.035939  0.071164     16.000000
  0.071878  0.071878  0.071164      8.000000
  0.000000  0.000000  0.106746      1.000000
  0.035939  0.000000  0.106746      4.000000
  0.071878  0.000000  0.106746      4.000000
  0.035939  0.035939  0.106746      4.000000
  0.071878  0.035939  0.106746      8.000000
  0.071878  0.071878  0.106746      4.000000
 


--------------------------------------------------------------------------------------------------------




 Dimension of arrays:
   k-points           NKPTS =     24   k-points in BZ     NKDIM =     24   number of bands    NBANDS=     36
   number of dos      NEDOS =    301   number of ions     NIONS =     16
   non local maximal  LDIM  =      4   non local SUM 2l+1 LMDIM =      8
   total plane-waves  NPLWV = 172800
   max r-space proj   IRMAX =      1   max aug-charges    IRDMAX=   8886
   dimension x,y,z NGX =    60 NGY =   60 NGZ =   48
   dimension x,y,z NGXF=   120 NGYF=  120 NGZF=   96
   support grid    NGXF=   120 NGYF=  120 NGZF=   96
   ions per type =               2   2   4   8
   NGX,Y,Z   is equivalent  to a cutoff of  17.92, 17.92, 17.04 a.u.
   NGXF,Y,Z  is equivalent  to a cutoff of  35.85, 35.85, 34.07 a.u.

 SYSTEM =  unknown system                          
 POSCAR =   C  O  N  H                             

 Startparameter for this run:
   NWRITE =      2    write-flag & timer
   PREC   = accura    normal or accurate (medium, high low for compatibility)
   ISTART =      0    job   : 0-new  1-cont  2-samecut
   ICHARG =      2    charge: 1-file 2-atom 10-const
   ISPIN  =      1    spin polarized calculation?
   LNONCOLLINEAR =      F non collinear calculations
   LSORBIT =      F    spin-orbit coupling
   INIWAV =      1    electr: 0-lowe 1-rand  2-diag
   LASPH  =      T    aspherical Exc in radial PAW
 Electronic Relaxation 1
   ENCUT  = 1000.0 eV  73.50 Ry    8.57 a.u.  14.35 14.35 12.08*2*pi/ulx,y,z
   ENINI  = 1000.0     initial cutoff
   ENAUG  = 1000.0 eV  augmentation charge cutoff
   NELM   =     60;   NELMIN=  2; NELMDL= -5     # of ELM steps 
   EDIFF  = 0.1E-06   stopping-criterion for ELM
   LREAL  =      F    real-space projection
   NLSPLINE    = F    spline interpolate recip. space projectors
   LCOMPAT=      F    compatible to vasp.4.4
   GGA_COMPAT  = T    GGA compatible to vasp.4.4-vasp.4.6
   LMAXPAW     = -100 max onsite density
   LMAXMIX     =    2 max onsite mixed and CHGCAR
   VOSKOWN=      0    Vosko Wilk Nusair interpolation
   ROPT   =    0.00000   0.00000   0.00000   0.00000
 Ionic relaxation
   EDIFFG = 0.1E-05   stopping-criterion for IOM
   NSW    =      0    number of steps for IOM
   NBLOCK =      1;   KBLOCK =      1    inner block; outer block 
   IBRION =     -1    ionic relax: 0-MD 1-quasi-New 2-CG
   NFREE  =      0    steps in history (QN), initial steepest desc. (CG)
   ISIF   =      0    stress and relaxation
   IWAVPR =     10    prediction:  0-non 1-charg 2-wave 3-comb
   ISYM   =      2    0-nonsym 1-usesym 2-fastsym
   LCORR  =      T    Harris-Foulkes like correction to forces

   POTIM  = 0.5000    time-step for ionic-motion
   TEIN   =    0.0    initial temperature
   TEBEG  =    0.0;   TEEND  =   0.0 temperature during run
   SMASS  =  -3.00    Nose mass-parameter (am)
   estimated Nose-frequenzy (Omega)   =  0.10E-29 period in steps = 0.13E+47 mass=  -0.708E-27a.u.
   SCALEE = 1.0000    scale energy and forces
   NPACO  =    256;   APACO  = 10.0  distance and # of slots for P.C.
   PSTRESS=    0.0 pullay stress

  Mass of Ions in am
   POMASS =  12.01 16.00 14.00  1.00
  Ionic Valenz
   ZVAL   =   4.00  6.00  5.00  1.00
  Atomic Wigner-Seitz radii
   RWIGS  =  -1.00 -1.00 -1.00 -1.00
  virtual crystal weights 
   VCA    =   1.00  1.00  1.00  1.00
   NELECT =      48.0000    total number of electrons
   NUPDOWN=      -1.0000    fix difference up-down

 DOS related values:
   EMIN   =  10.00;   EMAX   =-10.00  energy-range for DOS
   EFERMI =   0.00;   METHOD = LEGACY      
   ISMEAR =     0;   SIGMA  =   0.01  broadening in eV -4-tet -1-fermi 0-gaus

 Electronic relaxation 2 (details)
   IALGO  =     58    algorithm
   LDIAG  =      T    sub-space diagonalisation (order eigenvalues)
   LSUBROT=      F    optimize rotation matrix (better conditioning)
   TURBO    =      0    0=normal 1=particle mesh
   IRESTART =      0    0=no restart 2=restart with 2 vectors
   NREBOOT  =      0    no. of reboots
   NMIN     =      0    reboot dimension
   EREF     =   0.00    reference energy to select bands
   IMIX   =      4    mixing-type and parameters
     AMIX     =   0.40;   BMIX     =  1.00
     AMIX_MAG =   1.60;   BMIX_MAG =  1.00
     AMIN     =   0.10
     WC   =   100.;   INIMIX=   1;  MIXPRE=   1;  MAXMIX= -45

 Intra band minimization:
   WEIMIN = 0.0000     energy-eigenvalue tresh-hold
   EBREAK =  0.69E-09  absolut break condition
   DEPER  =   0.30     relativ break condition  

   TIME   =   0.40     timestep for ELM

  volume/ion in A,a.u.               =       9.07        61.18
  Fermi-wavevector in a.u.,A,eV,Ry     =   1.132330  2.139793 17.444984  1.282170
  Thomas-Fermi vector in A             =   2.269030

 Write flags
   LWAVE        =      F    write WAVECAR
   LDOWNSAMPLE  =      F    k-point downsampling of WAVECAR
   LCHARG       =      T    write CHGCAR
   LVTOT        =      F    write LOCPOT, total local potential
   LVHAR        =      F    write LOCPOT, Hartree potential only
   LELF         =      F    write electronic localiz. function (ELF)
   LORBIT       =      0    0 simple, 1 ext, 2 COOP (PROOUT), +10 PAW based schemes


 Dipole corrections
   LMONO  =      F    monopole corrections only (constant potential shift)
   LDIPOL =      F    correct potential (dipole corrections)
   IDIPOL =      0    1-x, 2-y, 3-z, 4-all directions 
   EPSILON=  1.0000000 bulk dielectric constant

 Exchange correlation treatment:
   GGA     =    OR    GGA type
   LEXCH   =    41    internal setting for exchange type
   LIBXC   =     F    Libxc                    
   VOSKOWN =     0    Vosko Wilk Nusair interpolation
   LHFCALC =     F    Hartree Fock is set to
   LHFONE  =     F    Hartree Fock one center treatment
   AEXX    =    0.0000 exact exchange contribution

 vdW DFT:
   LUSE_VDW   =     T    switch on vdW DFT
   IVDW_NL    =     1    kernel type
   LSPIN_VDW  =     F    use spin-polarized vdW DFT
   Zab_VDW    =-.8491    correlation parameter
   PARAM1     =0.1234
   PARAM2     =1.0000
   PARAM3     =0.0000
   -- rVV10 --
   BPARAM     = 6.3000
   CPARAM     = 0.0093

 Linear response parameters
   LEPSILON=     F    determine dielectric tensor
   LRPA    =     F    only Hartree local field effects (RPA)
   LNABLA  =     F    use nabla operator in PAW spheres
   LVEL    =     F    velocity operator in full k-point grid
   CSHIFT  =0.1000    complex shift for real part using Kramers Kronig
   OMEGAMAX=  -1.0    maximum frequency
   DEG_THRESHOLD= 0.2000000E-02 threshold for treating states as degnerate
   RTIME   =   -0.100 relaxation time in fs
  (WPLASMAI=    0.000 imaginary part of plasma frequency in eV, 0.658/RTIME)
   DFIELD  = 0.0000000 0.0000000 0.0000000 field for delta impulse in time

  Optional k-point grid parameters
   LKPOINTS_OPT  =     F    use optional k-point grid
   KPOINTS_OPT_MODE=     1    mode for optional k-point grid

 Orbital magnetization related:
   ORBITALMAG=     F  switch on orbital magnetization
   LCHIMAG   =     F  perturbation theory with respect to B field
   DQ        =  0.001000  dq finite difference perturbation B field
   LLRAUG    =     F  two centre corrections for induced B field
   LBONE     =     F  B-component reconstruction in AE one-centre
   LVGVCALC  =     T  calculate vGv susceptibility
   LVGVAPPL  =     F  apply vGv susceptibility instead of pGv for G=0

 Random number generation:
   RANDOM_GENERATOR = DEFAULT
   PCG_SEED         = not used


--------------------------------------------------------------------------------------------------------


 Static calculation
 charge density and potential will be updated during run
 non-spin polarized calculation
 Conjugate gradient for all bands (Freysoldt, et al. PRB 79, 241103 (2009))
 preconditioned conjugated gradient                                        
 perform sub-space diagonalisation
    before iterative eigenvector-optimisation
 modified Broyden-mixing scheme, WC =      100.0
 initial mixing is a Kerker type mixing with AMIX =  0.4000 and BMIX =      1.0000
 Hartree-type preconditioning will be used
 using additional bands           12
 reciprocal scheme for non local part
 use partial core corrections
 no Harris-corrections to forces 
 use gradient corrections 
 use of overlap-Matrix (Vanderbilt PP)
 Gauss-broadening in eV      SIGMA  =   0.01


--------------------------------------------------------------------------------------------------------


  energy-cutoff  :     1000.00
  volume of cell :      145.06
      direct lattice vectors                 reciprocal lattice vectors
     5.565000000  0.000000000  0.000000000     0.179694519  0.000000000  0.000000000
     0.000000000  5.565000000  0.000000000     0.000000000  0.179694519  0.000000000
     0.000000000  0.000000000  4.684000000     0.000000000  0.000000000  0.213492741

  length of vectors
     5.565000000  5.565000000  4.684000000     0.179694519  0.179694519  0.213492741



 k-points in units of 2pi/SCALE and weight: auto                                    
   0.00000000  0.00000000  0.00000000       0.007
   0.03593890  0.00000000  0.00000000       0.027
   0.07187781  0.00000000  0.00000000       0.027
   0.03593890  0.03593890  0.00000000       0.027
   0.07187781  0.03593890  0.00000000       0.053
   0.07187781  0.07187781  0.00000000       0.027
   0.00000000  0.00000000  0.03558212       0.013
   0.03593890  0.00000000  0.03558212       0.053
   0.07187781  0.00000000  0.03558212       0.053
   0.03593890  0.03593890  0.03558212       0.053
   0.07187781  0.03593890  0.03558212       0.107
   0.07187781  0.07187781  0.03558212       0.053
   0.00000000  0.00000000  0.07116425       0.013
   0.03593890  0.00000000  0.07116425       0.053
   0.07187781  0.00000000  0.07116425       0.053
   0.03593890  0.03593890  0.07116425       0.053
   0.07187781  0.03593890  0.07116425       0.107
   0.07187781  0.07187781  0.07116425       0.053
   0.00000000  0.00000000  0.10674637       0.007
   0.03593890  0.00000000  0.10674637       0.027
   0.07187781  0.00000000  0.10674637       0.027
   0.03593890  0.03593890  0.10674637       0.027
   0.07187781  0.03593890  0.10674637       0.053
   0.07187781  0.07187781  0.10674637       0.027

 k-points in reciprocal lattice and weights: auto                                    
   0.00000000  0.00000000  0.00000000       0.007
   0.20000000  0.00000000  0.00000000       0.027
   0.40000000  0.00000000  0.00000000       0.027
   0.20000000  0.20000000  0.00000000       0.027
   0.40000000  0.20000000  0.00000000       0.053
   0.40000000  0.40000000  0.00000000       0.027
   0.00000000  0.00000000  0.16666667       0.013
   0.20000000  0.00000000  0.16666667       0.053
   0.40000000  0.00000000  0.16666667       0.053
   0.20000000  0.20000000  0.16666667       0.053
   0.40000000  0.20000000  0.16666667       0.107
   0.40000000  0.40000000  0.16666667       0.053
   0.00000000  0.00000000  0.33333333       0.013
   0.20000000  0.00000000  0.33333333       0.053
   0.40000000  0.00000000  0.33333333       0.053
   0.20000000  0.20000000  0.33333333       0.053
   0.40000000  0.20000000  0.33333333       0.107
   0.40000000  0.40000000  0.33333333       0.053
   0.00000000  0.00000000  0.50000000       0.007
   0.20000000  0.00000000  0.50000000       0.027
   0.40000000  0.00000000  0.50000000       0.027
   0.20000000  0.20000000  0.50000000       0.027
   0.40000000  0.20000000  0.50000000       0.053
   0.40000000  0.40000000  0.50000000       0.027

 position of ions in fractional coordinates (direct lattice) 
   0.00000015  0.42712357  0.32605867
   0.49999993  0.92712291  0.67394153
   0.99999985  0.42712335  0.59785228
   0.49999992  0.92712301  0.40214792
   0.14681226  0.57393323  0.17687500
   0.85318784  0.28031383  0.17687528
   0.64681222  0.78031312  0.82312500
   0.35318776  0.07393271  0.82312474
   0.26008585  0.68721094  0.28293173
   0.73991375  0.16703538  0.28293187
   0.76008589  0.66703534  0.71706795
   0.23991392  0.18721083  0.71706788
   0.14575341  0.57287687  0.95926030
   0.85424623  0.28136951  0.95926010
   0.64575356  0.78136933  0.04073979
   0.35424612  0.07287699  0.04073970

 position of ions in cartesian coordinates  (Angst):
   0.00000082  2.37694268  1.52725882
   2.78249961  5.15943899  3.15674210
   5.56499918  2.37694144  2.80034008
   2.78249958  5.15943957  1.88366086
   0.81701025  3.19393841  0.82848252
   4.74799034  1.55994645  0.82848382
   3.59951001  4.34244250  3.85551749
   1.96548988  0.41143555  3.85551629
   1.44737778  3.82432890  1.32525221
   4.11762001  0.92955187  1.32525286
   4.22987798  3.71205169  3.35874627
   1.33512097  1.04182830  3.35874594
   0.81111773  3.18805976  4.49317523
   4.75388025  1.56582130  4.49317429
   3.59361857  4.34832031  0.19082520
   1.97137967  0.40556043  0.19082477



--------------------------------------------------------------------------------------------------------


 k-point   1 :   0.0000 0.0000 0.0000  plane waves:   10417
 k-point   2 :   0.2000 0.0000 0.0000  plane waves:   10421
 k-point   3 :   0.4000 0.0000 0.0000  plane waves:   10374
 k-point   4 :   0.2000 0.2000 0.0000  plane waves:   10400
 k-point   5 :   0.4000 0.2000 0.0000  plane waves:   10408
 k-point   6 :   0.4000 0.4000 0.0000  plane waves:   10434
 k-point   7 :   0.0000 0.0000 0.1667  plane waves:   10412
 k-point   8 :   0.2000 0.0000 0.1667  plane waves:   10423
 k-point   9 :   0.4000 0.0000 0.1667  plane waves:   10411
 k-point  10 :   0.2000 0.2000 0.1667  plane waves:   10421
 k-point  11 :   0.4000 0.2000 0.1667  plane waves:   10412
 k-point  12 :   0.4000 0.4000 0.1667  plane waves:   10400
 k-point  13 :   0.0000 0.0000 0.3333  plane waves:   10424
 k-point  14 :   0.2000 0.0000 0.3333  plane waves:   10416
 k-point  15 :   0.4000 0.0000 0.3333  plane waves:   10420
 k-point  16 :   0.2000 0.2000 0.3333  plane waves:   10430
 k-point  17 :   0.4000 0.2000 0.3333  plane waves:   10418
 k-point  18 :   0.4000 0.4000 0.3333  plane waves:   10412
 k-point  19 :   0.0000 0.0000 0.5000  plane waves:   10456
 k-point  20 :   0.2000 0.0000 0.5000  plane waves:   10434
 k-point  21 :   0.4000 0.0000 0.5000  plane waves:   10440
 k-point  22 :   0.2000 0.2000 0.5000  plane waves:   10410
 k-point  23 :   0.4000 0.2000 0.5000  plane waves:   10418
 k-point  24 :   0.4000 0.4000 0.5000  plane waves:   10420

 maximum and minimum number of plane-waves per node :       344      304

 maximum number of plane-waves:     10456
 maximum index in each direction: 
   IXMAX=   14   IYMAX=   14   IZMAX=   12
   IXMIN=  -14   IYMIN=  -14   IZMIN=  -12


 parallel 3D FFT for wavefunctions:
    minimum data exchange during FFTs selected (reduces bandwidth)
 parallel 3D FFT for charge:
    minimum data exchange during FFTs selected (reduces bandwidth)


 total amount of memory used by VASP MPI-rank0    37265. kBytes
=======================================================================

   base      :      30000. kBytes
   nonl-proj :       2099. kBytes
   fftplans  :        605. kBytes
   grid      :       1075. kBytes
   one-center:          3. kBytes
   wavefun   :       3483. kBytes

     INWAV:  cpu time      0.0001: real time      0.0002
 Broyden mixing: mesh for mixing (old mesh)
   NGX = 29   NGY = 29   NGZ = 25
  (NGX  =120   NGY  =120   NGZ  = 96)
  gives a total of  21025 points

 initial charge density was supplied:
 charge density of overlapping atoms calculated
 number of electron      48.0000000 magnetization 
 keeping initial charge density in first step


--------------------------------------------------------------------------------------------------------


 Maximum index for augmentation-charges          493 (set IRDMAX)


--------------------------------------------------------------------------------------------------------


 First call to EWALD:  gamma=   0.337
 Maximum number of real-space cells 3x 3x 3
 Maximum number of reciprocal cells 3x 3x 3

    FEWALD:  cpu time      0.0022: real time      0.0022


--------------------------------------- Ionic step        1  -------------------------------------------




--------------------------------------- Iteration      1(   1)  ---------------------------------------


vdW kernel read from vdw_kernel.bindat
  0.0000  0.2424  0.5071  0.7962  1.1119  1.4567  1.8333  2.2446  2.6937  3.1842
  3.7199  4.3049  4.9438  5.6415  6.4036  7.2358  8.1446  9.1372 10.2212 11.4050
 12.6979 14.1099 15.6519 17.3360 19.1751 21.1837 23.3773 25.7729 28.3892 31.2465
 34.3669 37.7748 41.4965 45.5611 50.0000

    POTLOK:  cpu time      1.1097: real time      1.1322
    SETDIJ:  cpu time      0.0741: real time      0.0748
    TRIAL :  cpu time      0.6310: real time      0.6401
    CORREC:  cpu time      0.0011: real time      0.0012
    --------------------------------------------
      LOOP:  cpu time      1.8182: real time      1.9122

 eigenvalue-minimisations  :  1728
 total energy-change (2. order) : 0.4467489E+03  (-0.3731912E+04)
 number of electron      48.0000000 magnetization 
 augmentation part       48.0000000 magnetization 

 Free energy of the ion-electron system (eV)
  ---------------------------------------------------
  alpha Z        PSCENC =        45.44424880
  Ewald energy   TEWEN  =     -1112.25898815
  -Hartree energ DENC   =      -975.75293079
  -exchange      EXHF   =         0.00000000
  -V(xc)+E(xc)   XCENC  =       150.67135988
  PAW double counting   =      1763.23262585    -1747.66811916
  entropy T*S    EENTRO =        -0.00012856
  eigenvalues    EBANDS =       -14.46418878
  atomic energy  EATOM  =      2337.54503322
  ---------------------------------------------------
  free energy    TOTEN  =       446.74891231 eV

  energy without entropy =      446.74904087  energy(sigma->0) =      446.74897659


--------------------------------------------------------------------------------------------------------




--------------------------------------- Iteration      1(   2)  ---------------------------------------


    TRIAL :  cpu time      0.6938: real time      0.6938
    CORREC:  cpu time      0.0002: real time      0.0001
    --------------------------------------------
      LOOP:  cpu time      0.7079: real time      0.7240

 eigenvalue-minimisations  :  2340
 total energy-change (2. order) :-0.4686415E+03  (-0.4423121E+03)
 number of electron      48.0000000 magnetization 
 augmentation part       48.0000000 magnetization 

 Free energy of the ion-electron system (eV)
  ---------------------------------------------------
  alpha Z        PSCENC =        45.44424880
  Ewald energy   TEWEN  =     -1112.25898815
  -Hartree energ DENC   =      -975.75293079
  -exchange      EXHF   =         0.00000000
  -V(xc)+E(xc)   XCENC  =       150.67135988
  PAW double counting   =      1763.23262585    -1747.66811916
  entropy T*S    EENTRO =        -0.00000000
  eigenvalues    EBANDS =      -483.10580432
  atomic energy  EATOM  =      2337.54503322
  ---------------------------------------------------
  free energy    TOTEN  =       -21.89257467 eV

  energy without entropy =      -21.89257467  energy(sigma->0) =      -21.89257467


--------------------------------------------------------------------------------------------------------




--------------------------------------- Iteration      1(   3)  ---------------------------------------


    TRIAL :  cpu time      0.6482: real time      0.6485
    CORREC:  cpu time      0.0002: real time      0.0002
    --------------------------------------------
      LOOP:  cpu time      0.6621: real time      0.6775

 eigenvalue-minimisations  :  2160
 total energy-change (2. order) :-0.6970235E+02  (-0.6884998E+02)
 number of electron      48.0000000 magnetization 
 augmentation part       48.0000000 magnetization 

 Free energy of the ion-electron system (eV)
  ---------------------------------------------------
  alpha Z        PSCENC =        45.44424880
  Ewald energy   TEWEN  =     -1112.25898815
  -Hartree energ DENC   =      -975.75293079
  -exchange      EXHF   =         0.00000000
  -V(xc)+E(xc)   XCENC  =       150.67135988
  PAW double counting   =      1763.23262585    -1747.66811916
  entropy T*S    EENTRO =        -0.00000000
  eigenvalues    EBANDS =      -552.80815058
  atomic energy  EATOM  =      2337.54503322
  ---------------------------------------------------
  free energy    TOTEN  =       -91.59492092 eV

  energy without entropy =      -91.59492092  energy(sigma->0) =      -91.59492092


--------------------------------------------------------------------------------------------------------




--------------------------------------- Iteration      1(   4)  ---------------------------------------


    TRIAL :  cpu time      0.6555: real time      0.6557
    CORREC:  cpu time      0.0002: real time      0.0002
    --------------------------------------------
      LOOP:  cpu time      0.6673: real time      0.6865

 eigenvalue-minimisations  :  2200
 total energy-change (2. order) :-0.2231021E+01  (-0.2219578E+01)
 number of electron      48.0000000 magnetization 
 augmentation part       48.0000000 magnetization 

 Free energy of the ion-electron system (eV)
  ---------------------------------------------------
  alpha Z        PSCENC =        45.44424880
  Ewald energy   TEWEN  =     -1112.25898815
  -Hartree energ DENC   =      -975.75293079
  -exchange      EXHF   =         0.00000000
  -V(xc)+E(xc)   XCENC  =       150.67135988
  PAW double counting   =      1763.23262585    -1747.66811916
  entropy T*S    EENTRO =        -0.00000000
  eigenvalues    EBANDS =      -555.03917184
  atomic energy  EATOM  =      2337.54503322
  ---------------------------------------------------
  free energy    TOTEN  =       -93.82594218 eV

  energy without entropy =      -93.82594218  energy(sigma->0) =      -93.82594218


--------------------------------------------------------------------------------------------------------




--------------------------------------- Iteration      1(   5)  ---------------------------------------


    TRIAL :  cpu time      0.6883: real time      0.6883
    CORREC:  cpu time      0.0002: real time      0.0002
    CHARGE:  cpu time      0.0668: real time      0.0676
    --------------------------------------------
      LOOP:  cpu time      0.7682: real time      0.7857

 eigenvalue-minimisations  :  2316
 total energy-change (2. order) :-0.7357801E-01  (-0.7348819E-01)
 number of electron      47.9999999 magnetization 
 augmentation part        0.2094306 magnetization 

 Free energy of the ion-electron system (eV)
  ---------------------------------------------------
  alpha Z        PSCENC =        45.44424880
  Ewald energy   TEWEN  =     -1112.25898815
  -Hartree energ DENC   =      -975.75293079
  -exchange      EXHF   =         0.00000000
  -V(xc)+E(xc)   XCENC  =       150.67135988
  PAW double counting   =      1763.23262585    -1747.66811916
  entropy T*S    EENTRO =        -0.00000000
  eigenvalues    EBANDS =      -555.11274984
  atomic energy  EATOM  =      2337.54503322
  ---------------------------------------------------
  free energy    TOTEN  =       -93.89952019 eV

  energy without entropy =      -93.89952019  energy(sigma->0) =      -93.89952019


--------------------------------------------------------------------------------------------------------




--------------------------------------- Iteration      1(   6)  ---------------------------------------


    POTLOK:  cpu time      0.5081: real time      0.5084
    SETDIJ:  cpu time      0.0661: real time      0.0661
    TRIAL :  cpu time      0.3688: real time      0.3695
    CORREC:  cpu time      0.8203: real time      0.8214
    CHARGE:  cpu time      0.0500: real time      0.0500
    --------------------------------------------
      LOOP:  cpu time      1.8256: real time      1.8433

 eigenvalue-minimisations  :     0
 total energy-change (2. order) : 0.2082703E+02  (-0.1029650E+02)
 number of electron      47.9999999 magnetization 
 augmentation part        0.0985067 magnetization 

 Free energy of the ion-electron system (eV)
  ---------------------------------------------------
  alpha Z        PSCENC =        45.44424880
  Ewald energy   TEWEN  =     -1112.25898815
  -Hartree energ DENC   =     -1264.83821470
  -exchange      EXHF   =         0.00000000
  -V(xc)+E(xc)   XCENC  =       168.87106660
  PAW double counting   =     14689.17824861   -14676.96060206
  entropy T*S    EENTRO =        -0.00000000
  eigenvalues    EBANDS =      -260.05328194
  atomic energy  EATOM  =      2337.54503322
  ---------------------------------------------------
  free energy    TOTEN  =       -73.07248962 eV

  energy without entropy =      -73.07248962  energy(sigma->0) =      -73.07248962


--------------------------------------------------------------------------------------------------------




--------------------------------------- Iteration      1(   7)  ---------------------------------------


    POTLOK:  cpu time      0.5091: real time      0.5093
    SETDIJ:  cpu time      0.0661: real time      0.0661
    TRIAL :  cpu time      0.3433: real time      0.3433
    CORREC:  cpu time      0.8103: real time      0.8106
    CHARGE:  cpu time      0.0497: real time      0.0497
    --------------------------------------------
      LOOP:  cpu time      1.8084: real time      1.8090

 eigenvalue-minimisations  :     0
 total energy-change (2. order) :-0.1030341E+02  (-0.1123087E+01)
 number of electron      47.9999999 magnetization 
 augmentation part        0.0624123 magnetization 

 Free energy of the ion-electron system (eV)
  ---------------------------------------------------
  alpha Z        PSCENC =        45.44424880
  Ewald energy   TEWEN  =     -1112.25898815
  -Hartree energ DENC   =     -1122.94152488
  -exchange      EXHF   =         0.00000000
  -V(xc)+E(xc)   XCENC  =       160.36062400
  PAW double counting   =     21975.21971813   -21961.30308048
  entropy T*S    EENTRO =        -0.00000000
  eigenvalues    EBANDS =      -405.44193289
  atomic energy  EATOM  =      2337.54503322
  ---------------------------------------------------
  free energy    TOTEN  =       -83.37590225 eV

  energy without entropy =      -83.37590225  energy(sigma->0) =      -83.37590225


--------------------------------------------------------------------------------------------------------




--------------------------------------- Iteration      1(   8)  ---------------------------------------


    POTLOK:  cpu time      0.5092: real time      0.5095
    SETDIJ:  cpu time      0.0661: real time      0.0661
    TRIAL :  cpu time      0.3523: real time      0.3523
    CORREC:  cpu time      0.8098: real time      0.8100
    CHARGE:  cpu time      0.0495: real time      0.0495
    --------------------------------------------
      LOOP:  cpu time      1.7984: real time      1.8166

 eigenvalue-minimisations  :     0
 total energy-change (2. order) :-0.1125695E+01  (-0.4074541E+00)
 number of electron      47.9999999 magnetization 
 augmentation part        0.0684327 magnetization 

 Free energy of the ion-electron system (eV)
  ---------------------------------------------------
  alpha Z        PSCENC =        45.44424880
  Ewald energy   TEWEN  =     -1112.25898815
  -Hartree energ DENC   =     -1119.60188693
  -exchange      EXHF   =         0.00000000
  -V(xc)+E(xc)   XCENC  =       160.08509956
  PAW double counting   =     22038.17364469   -22024.07323819
  entropy T*S    EENTRO =        -0.00000000
  eigenvalues    EBANDS =      -409.81550977
  atomic energy  EATOM  =      2337.54503322
  ---------------------------------------------------
  free energy    TOTEN  =       -84.50159678 eV

  energy without entropy =      -84.50159678  energy(sigma->0) =      -84.50159678


--------------------------------------------------------------------------------------------------------




--------------------------------------- Iteration      1(   9)  ---------------------------------------


    POTLOK:  cpu time      0.5083: real time      0.5083
    SETDIJ:  cpu time      0.0661: real time      0.0661
    TRIAL :  cpu time      0.3432: real time      0.3435
    CORREC:  cpu time      0.8101: real time      0.8104
    CHARGE:  cpu time      0.0497: real time      0.0498
    --------------------------------------------
      LOOP:  cpu time      1.7906: real time      1.8097

 eigenvalue-minimisations  :     0
 total energy-change (2. order) :-0.4035712E+00  (-0.1159809E+00)
 number of electron      47.9999999 magnetization 
 augmentation part        0.0758608 magnetization 

 Free energy of the ion-electron system (eV)
  ---------------------------------------------------
  alpha Z        PSCENC =        45.44424880
  Ewald energy   TEWEN  =     -1112.25898815
  -Hartree energ DENC   =     -1113.64965428
  -exchange      EXHF   =         0.00000000
  -V(xc)+E(xc)   XCENC  =       159.74950848
  PAW double counting   =     21774.29768991   -21760.16413044
  entropy T*S    EENTRO =        -0.00000000
  eigenvalues    EBANDS =      -415.86887556
  atomic energy  EATOM  =      2337.54503322
  ---------------------------------------------------
  free energy    TOTEN  =       -84.90516801 eV

  energy without entropy =      -84.90516801  energy(sigma->0) =      -84.90516801


--------------------------------------------------------------------------------------------------------




--------------------------------------- Iteration      1(  10)  ---------------------------------------


    POTLOK:  cpu time      0.5096: real time      0.5096
    SETDIJ:  cpu time      0.0661: real time      0.0661
    TRIAL :  cpu time      0.3432: real time      0.3434
    CORREC:  cpu time      0.8099: real time      0.8100
    CHARGE:  cpu time      0.0497: real time      0.0497
    --------------------------------------------
      LOOP:  cpu time      1.7919: real time      1.8087

 eigenvalue-minimisations  :     0
 total energy-change (2. order) :-0.1156036E+00  (-0.2675602E-01)
 number of electron      47.9999999 magnetization 
 augmentation part        0.0765408 magnetization 

 Free energy of the ion-electron system (eV)
  ---------------------------------------------------
  alpha Z        PSCENC =        45.44424880
  Ewald energy   TEWEN  =     -1112.25898815
  -Hartree energ DENC   =     -1111.00037114
  -exchange      EXHF   =         0.00000000
  -V(xc)+E(xc)   XCENC  =       159.57960142
  PAW double counting   =     21076.17024661   -21062.07106502
  entropy T*S    EENTRO =        -0.00000000
  eigenvalues    EBANDS =      -418.42947735
  atomic energy  EATOM  =      2337.54503322
  ---------------------------------------------------
  free energy    TOTEN  =       -85.02077160 eV

  energy without entropy =      -85.02077160  energy(sigma->0) =      -85.02077160


--------------------------------------------------------------------------------------------------------




--------------------------------------- Iteration      1(  11)  ---------------------------------------


    POTLOK:  cpu time      0.5082: real time      0.5082
    SETDIJ:  cpu time      0.0662: real time      0.0662
    TRIAL :  cpu time      0.3459: real time      0.3459
    CORREC:  cpu time      0.8090: real time      0.8092
    CHARGE:  cpu time      0.0498: real time      0.0498
    --------------------------------------------
      LOOP:  cpu time      1.7951: real time      1.8105

 eigenvalue-minimisations  :     0
 total energy-change (2. order) :-0.2674045E-01  (-0.5199060E-02)
 number of electron      47.9999999 magnetization 
 augmentation part        0.0761768 magnetization 

 Free energy of the ion-electron system (eV)
  ---------------------------------------------------
  alpha Z        PSCENC =        45.44424880
  Ewald energy   TEWEN  =     -1112.25898815
  -Hartree energ DENC   =     -1110.42882869
  -exchange      EXHF   =         0.00000000
  -V(xc)+E(xc)   XCENC  =       159.52891981
  PAW double counting   =     20772.15855518   -20758.07425448
  entropy T*S    EENTRO =        -0.00000000
  eigenvalues    EBANDS =      -418.96219773
  atomic energy  EATOM  =      2337.54503322
  ---------------------------------------------------
  free energy    TOTEN  =       -85.04751205 eV

  energy without entropy =      -85.04751205  energy(sigma->0) =      -85.04751205


--------------------------------------------------------------------------------------------------------




--------------------------------------- Iteration      1(  12)  ---------------------------------------


    POTLOK:  cpu time      0.5082: real time      0.5084
    SETDIJ:  cpu time      0.0662: real time      0.0662
    TRIAL :  cpu time      0.3449: real time      0.3449
    CORREC:  cpu time      0.8907: real time      0.8909
    CHARGE:  cpu time      0.0505: real time      0.0505
    --------------------------------------------
      LOOP:  cpu time      1.8912: real time      1.8919

 eigenvalue-minimisations  :     0
 total energy-change (2. order) :-0.5197233E-02  (-0.1107669E-02)
 number of electron      47.9999999 magnetization 
 augmentation part        0.0758766 magnetization 

 Free energy of the ion-electron system (eV)
  ---------------------------------------------------
  alpha Z        PSCENC =        45.44424880
  Ewald energy   TEWEN  =     -1112.25898815
  -Hartree energ DENC   =     -1110.14461612
  -exchange      EXHF   =         0.00000000
  -V(xc)+E(xc)   XCENC  =       159.50920461
  PAW double counting   =     20790.54133170   -20776.45638975
  entropy T*S    EENTRO =        -0.00000000
  eigenvalues    EBANDS =      -419.23253360
  atomic energy  EATOM  =      2337.54503322
  ---------------------------------------------------
  free energy    TOTEN  =       -85.05270928 eV

  energy without entropy =      -85.05270928  energy(sigma->0) =      -85.05270928


--------------------------------------------------------------------------------------------------------




--------------------------------------- Iteration      1(  13)  ---------------------------------------


    POTLOK:  cpu time      0.5086: real time      0.5088
    SETDIJ:  cpu time      0.0662: real time      0.0662
    TRIAL :  cpu time      0.3436: real time      0.3436
    CORREC:  cpu time      0.8148: real time      0.8150
    CHARGE:  cpu time      0.0499: real time      0.0499
    --------------------------------------------
      LOOP:  cpu time      1.7980: real time      1.8139

 eigenvalue-minimisations  :     0
 total energy-change (2. order) :-0.1106269E-02  (-0.2760528E-03)
 number of electron      47.9999999 magnetization 
 augmentation part        0.0756736 magnetization 

 Free energy of the ion-electron system (eV)
  ---------------------------------------------------
  alpha Z        PSCENC =        45.44424880
  Ewald energy   TEWEN  =     -1112.25898815
  -Hartree energ DENC   =     -1110.22910764
  -exchange      EXHF   =         0.00000000
  -V(xc)+E(xc)   XCENC  =       159.51470896
  PAW double counting   =     20820.00542096   -20805.92067209
  entropy T*S    EENTRO =        -0.00000000
  eigenvalues    EBANDS =      -419.15445962
  atomic energy  EATOM  =      2337.54503322
  ---------------------------------------------------
  free energy    TOTEN  =       -85.05381555 eV

  energy without entropy =      -85.05381555  energy(sigma->0) =      -85.05381555


--------------------------------------------------------------------------------------------------------




--------------------------------------- Iteration      1(  14)  ---------------------------------------


    POTLOK:  cpu time      0.5080: real time      0.5082
    SETDIJ:  cpu time      0.0661: real time      0.0661
    TRIAL :  cpu time      0.3431: real time      0.3431
    CORREC:  cpu time      0.8099: real time      0.8101
    CHARGE:  cpu time      0.0499: real time      0.0499
    --------------------------------------------
      LOOP:  cpu time      1.7895: real time      1.8083

 eigenvalue-minimisations  :     0
 total energy-change (2. order) :-0.2757518E-03  (-0.7642924E-04)
 number of electron      47.9999999 magnetization 
 augmentation part        0.0757938 magnetization 

 Free energy of the ion-electron system (eV)
  ---------------------------------------------------
  alpha Z        PSCENC =        45.44424880
  Ewald energy   TEWEN  =     -1112.25898815
  -Hartree energ DENC   =     -1110.20544820
  -exchange      EXHF   =         0.00000000
  -V(xc)+E(xc)   XCENC  =       159.51357838
  PAW double counting   =     20820.39151221   -20806.30569423
  entropy T*S    EENTRO =        -0.00000000
  eigenvalues    EBANDS =      -419.17833334
  atomic energy  EATOM  =      2337.54503322
  ---------------------------------------------------
  free energy    TOTEN  =       -85.05409131 eV

  energy without entropy =      -85.05409131  energy(sigma->0) =      -85.05409131


--------------------------------------------------------------------------------------------------------




--------------------------------------- Iteration      1(  15)  ---------------------------------------


    POTLOK:  cpu time      0.5084: real time      0.5085
    SETDIJ:  cpu time      0.0661: real time      0.0661
    TRIAL :  cpu time      0.3441: real time      0.3443
    CORREC:  cpu time      0.8092: real time      0.8095
    CHARGE:  cpu time      0.0497: real time      0.0497
    --------------------------------------------
      LOOP:  cpu time      1.8084: real time      1.8093

 eigenvalue-minimisations  :     0
 total energy-change (2. order) :-0.7656633E-04  (-0.2231580E-04)
 number of electron      47.9999999 magnetization 
 augmentation part        0.0757649 magnetization 

 Free energy of the ion-electron system (eV)
  ---------------------------------------------------
  alpha Z        PSCENC =        45.44424880
  Ewald energy   TEWEN  =     -1112.25898815
  -Hartree energ DENC   =     -1110.30428923
  -exchange      EXHF   =         0.00000000
  -V(xc)+E(xc)   XCENC  =       159.51903620
  PAW double counting   =     20808.21977380   -20794.13526307
  entropy T*S    EENTRO =        -0.00000000
  eigenvalues    EBANDS =      -419.08371945
  atomic energy  EATOM  =      2337.54503322
  ---------------------------------------------------
  free energy    TOTEN  =       -85.05416787 eV

  energy without entropy =      -85.05416787  energy(sigma->0) =      -85.05416787


--------------------------------------------------------------------------------------------------------




--------------------------------------- Iteration      1(  16)  ---------------------------------------


    POTLOK:  cpu time      0.5107: real time      0.5108
    SETDIJ:  cpu time      0.0661: real time      0.0661
    TRIAL :  cpu time      0.3434: real time      0.3437
    CORREC:  cpu time      0.8351: real time      0.8351
    CHARGE:  cpu time      0.0496: real time      0.0496
    --------------------------------------------
      LOOP:  cpu time      1.8179: real time      1.8354

 eigenvalue-minimisations  :     0
 total energy-change (2. order) :-0.2240280E-04  (-0.7402995E-05)
 number of electron      47.9999999 magnetization 
 augmentation part        0.0757777 magnetization 

 Free energy of the ion-electron system (eV)
  ---------------------------------------------------
  alpha Z        PSCENC =        45.44424880
  Ewald energy   TEWEN  =     -1112.25898815
  -Hartree energ DENC   =     -1110.28518874
  -exchange      EXHF   =         0.00000000
  -V(xc)+E(xc)   XCENC  =       159.51813905
  PAW double counting   =     20807.89014221   -20793.80516417
  entropy T*S    EENTRO =        -0.00000000
  eigenvalues    EBANDS =      -419.10241249
  atomic energy  EATOM  =      2337.54503322
  ---------------------------------------------------
  free energy    TOTEN  =       -85.05419027 eV

  energy without entropy =      -85.05419027  energy(sigma->0) =      -85.05419027


--------------------------------------------------------------------------------------------------------




--------------------------------------- Iteration      1(  17)  ---------------------------------------


    POTLOK:  cpu time      0.5080: real time      0.5083
    SETDIJ:  cpu time      0.0662: real time      0.0662
    TRIAL :  cpu time      0.3444: real time      0.3444
    CORREC:  cpu time      0.8100: real time      0.8102
    CHARGE:  cpu time      0.0499: real time      0.0499
    --------------------------------------------
      LOOP:  cpu time      1.7918: real time      1.8091

 eigenvalue-minimisations  :     0
 total energy-change (2. order) :-0.7343802E-05  (-0.2542762E-05)
 number of electron      47.9999999 magnetization 
 augmentation part        0.0757419 magnetization 

 Free energy of the ion-electron system (eV)
  ---------------------------------------------------
  alpha Z        PSCENC =        45.44424880
  Ewald energy   TEWEN  =     -1112.25898815
  -Hartree energ DENC   =     -1110.31301730
  -exchange      EXHF   =         0.00000000
  -V(xc)+E(xc)   XCENC  =       159.51969539
  PAW double counting   =     20811.86993497   -20797.78513047
  entropy T*S    EENTRO =        -0.00000000
  eigenvalues    EBANDS =      -419.07597408
  atomic energy  EATOM  =      2337.54503322
  ---------------------------------------------------
  free energy    TOTEN  =       -85.05419762 eV

  energy without entropy =      -85.05419762  energy(sigma->0) =      -85.05419762


--------------------------------------------------------------------------------------------------------




--------------------------------------- Iteration      1(  18)  ---------------------------------------


    POTLOK:  cpu time      0.5083: real time      0.5086
    SETDIJ:  cpu time      0.0662: real time      0.0662
    TRIAL :  cpu time      0.3426: real time      0.3426
    CORREC:  cpu time      0.8091: real time      0.8094
    CHARGE:  cpu time      0.0498: real time      0.0498
    --------------------------------------------
      LOOP:  cpu time      1.8066: real time      1.8073

 eigenvalue-minimisations  :     0
 total energy-change (2. order) :-0.2465276E-05  (-0.7773868E-06)
 number of electron      47.9999999 magnetization 
 augmentation part        0.0757483 magnetization 

 Free energy of the ion-electron system (eV)
  ---------------------------------------------------
  alpha Z        PSCENC =        45.44424880
  Ewald energy   TEWEN  =     -1112.25898815
  -Hartree energ DENC   =     -1110.30121491
  -exchange      EXHF   =         0.00000000
  -V(xc)+E(xc)   XCENC  =       159.51913831
  PAW double counting   =     20816.15575452   -20802.07064731
  entropy T*S    EENTRO =        -0.00000000
  eigenvalues    EBANDS =      -419.08752456
  atomic energy  EATOM  =      2337.54503322
  ---------------------------------------------------
  free energy    TOTEN  =       -85.05420008 eV

  energy without entropy =      -85.05420008  energy(sigma->0) =      -85.05420008


--------------------------------------------------------------------------------------------------------




--------------------------------------- Iteration      1(  19)  ---------------------------------------


    POTLOK:  cpu time      0.5092: real time      0.5094
    SETDIJ:  cpu time      0.0662: real time      0.0662
    TRIAL :  cpu time      0.3526: real time      0.3526
    CORREC:  cpu time      0.8102: real time      0.8105
    CHARGE:  cpu time      0.0498: real time      0.0498
    --------------------------------------------
      LOOP:  cpu time      1.8001: real time      1.8196

 eigenvalue-minimisations  :     0
 total energy-change (2. order) :-0.7601848E-06  (-0.2020812E-06)
 number of electron      47.9999999 magnetization 
 augmentation part        0.0757432 magnetization 

 Free energy of the ion-electron system (eV)
  ---------------------------------------------------
  alpha Z        PSCENC =        45.44424880
  Ewald energy   TEWEN  =     -1112.25898815
  -Hartree energ DENC   =     -1110.30602070
  -exchange      EXHF   =         0.00000000
  -V(xc)+E(xc)   XCENC  =       159.51946002
  PAW double counting   =     20816.48963974   -20802.40464754
  entropy T*S    EENTRO =        -0.00000000
  eigenvalues    EBANDS =      -419.08292623
  atomic energy  EATOM  =      2337.54503322
  ---------------------------------------------------
  free energy    TOTEN  =       -85.05420084 eV

  energy without entropy =      -85.05420084  energy(sigma->0) =      -85.05420084


--------------------------------------------------------------------------------------------------------




--------------------------------------- Iteration      1(  20)  ---------------------------------------


    POTLOK:  cpu time      0.5087: real time      0.5087
    SETDIJ:  cpu time      0.0659: real time      0.0661
    TRIAL :  cpu time      0.3427: real time      0.3427
    CORREC:  cpu time      0.8102: real time      0.8105
    CHARGE:  cpu time      0.0497: real time      0.0497
    --------------------------------------------
      LOOP:  cpu time      1.7893: real time      1.8091

 eigenvalue-minimisations  :     0
 total energy-change (2. order) :-0.2043635E-06  (-0.5736506E-07)
 number of electron      47.9999999 magnetization 
 augmentation part        0.0757451 magnetization 

 Free energy of the ion-electron system (eV)
  ---------------------------------------------------
  alpha Z        PSCENC =        45.44424880
  Ewald energy   TEWEN  =     -1112.25898815
  -Hartree energ DENC   =     -1110.30053364
  -exchange      EXHF   =         0.00000000
  -V(xc)+E(xc)   XCENC  =       159.51914505
  PAW double counting   =     20815.73970605   -20801.65466891
  entropy T*S    EENTRO =        -0.00000000
  eigenvalues    EBANDS =      -419.08814347
  atomic energy  EATOM  =      2337.54503322
  ---------------------------------------------------
  free energy    TOTEN  =       -85.05420105 eV

  energy without entropy =      -85.05420105  energy(sigma->0) =      -85.05420105


--------------------------------------------------------------------------------------------------------




--------------------------------------- Iteration      1(  21)  ---------------------------------------


    POTLOK:  cpu time      0.5086: real time      0.5086
    SETDIJ:  cpu time      0.0661: real time      0.0661
    TRIAL :  cpu time      0.3428: real time      0.3432
    CORREC:  cpu time      0.8101: real time      0.8101
    EDDIAG:  cpu time      0.2015: real time      0.2023
    CHARGE:  cpu time      0.0544: real time      0.0544
    --------------------------------------------
      LOOP:  cpu time      2.0020: real time      2.0210

 eigenvalue-minimisations  :     0
 total energy-change (2. order) :-0.5887341E-07  (-0.1916506E-07)
 number of electron      47.9999999 magnetization 
 augmentation part        0.0757439 magnetization 

 Free energy of the ion-electron system (eV)
  ---------------------------------------------------
  alpha Z        PSCENC =        45.44424880
  Ewald energy   TEWEN  =     -1112.25898815
  -Hartree energ DENC   =     -1110.30128652
  -exchange      EXHF   =         0.00000000
  -V(xc)+E(xc)   XCENC  =       159.51916315
  PAW double counting   =     20814.94047135   -20800.85546158
  entropy T*S    EENTRO =        -0.00000000
  eigenvalues    EBANDS =      -419.08738138
  atomic energy  EATOM  =      2337.54503322
  ---------------------------------------------------
  free energy    TOTEN  =       -85.05420111 eV

  energy without entropy =      -85.05420111  energy(sigma->0) =      -85.05420111


--------------------------------------------------------------------------------------------------------


  average scaling for gradient   0.8514


 average (electrostatic) potential at core
  the test charge radii are     0.5770  0.5955  0.5902  0.4325
  (the norm of the test charge is              1.0000)
       1 -84.7966       2 -84.7967       3-113.9454       4-113.9453       5 -99.1998
       6 -99.1997       7 -99.1999       8 -99.1997       9 -42.3633      10 -42.3632
      11 -42.3634      12 -42.3631      13 -42.4842      14 -42.4841      15 -42.4843
      16 -42.4842



 E-fermi :  -0.8107     XC(G=0):  -8.1633     alpha+bet : -6.6267

 Fermi energy:        -0.8106639462

 k-point     1 :       0.0000    0.0000    0.0000
  band No.  band energies     occupation 
      1     -21.2010      2.00000
      2     -20.9976      2.00000
      3     -17.7226      2.00000
      4     -17.6787      2.00000
      5     -16.6892      2.00000
      6     -16.6891      2.00000
      7     -10.6744      2.00000
      8     -10.0222      2.00000
      9      -9.1842      2.00000
     10      -8.3220      2.00000
     11      -8.3220      2.00000
     12      -8.2884      2.00000
     13      -6.9234      2.00000
     14      -6.9233      2.00000
     15      -5.2845      2.00000
     16      -5.2844      2.00000
     17      -4.9841      2.00000
     18      -4.5358      2.00000
     19      -1.9905      2.00000
     20      -1.9904      2.00000
     21      -1.9880      2.00000
     22      -1.4808      2.00000
     23      -1.4808      2.00000
     24      -0.8783      2.00000
     25       4.1459      0.00000
     26       4.9899      0.00000
     27       4.9900      0.00000
     28       6.9770      0.00000
     29       8.0729      0.00000
     30       8.5729      0.00000
     31       8.5968      0.00000
     32       8.5968      0.00000
     33       9.6005      0.00000
     34      10.1052      0.00000
     35      10.4454      0.00000
     36      10.6291      0.00000

 k-point     2 :       0.2000    0.0000    0.0000
  band No.  band energies     occupation 
      1     -21.1819      2.00000
      2     -21.0173      2.00000
      3     -17.7181      2.00000
      4     -17.6826      2.00000
      5     -16.6887      2.00000
      6     -16.6885      2.00000
      7     -10.6292      2.00000
      8     -10.1073      2.00000
      9      -9.1396      2.00000
     10      -8.4909      2.00000
     11      -8.3118      2.00000
     12      -8.2697      2.00000
     13      -6.8146      2.00000
     14      -6.7590      2.00000
     15      -5.4095      2.00000
     16      -5.3580      2.00000
     17      -4.9051      2.00000
     18      -4.5665      2.00000
     19      -2.0527      2.00000
     20      -2.0163      2.00000
     21      -1.8256      2.00000
     22      -1.5125      2.00000
     23      -1.4707      2.00000
     24      -0.9180      2.00000
     25       4.3541      0.00000
     26       4.9208      0.00000
     27       5.0071      0.00000
     28       7.0798      0.00000
     29       7.4657      0.00000
     30       8.4675      0.00000
     31       8.5301      0.00000
     32       9.1750      0.00000
     33       9.7442      0.00000
     34      10.1017      0.00000
     35      10.2282      0.00000
     36      10.4486      0.00000

 k-point     3 :       0.4000    0.0000    0.0000
  band No.  band energies     occupation 
      1     -21.1316      2.00000
      2     -21.0687      2.00000
      3     -17.7065      2.00000
      4     -17.6930      2.00000
      5     -16.6878      2.00000
      6     -16.6877      2.00000
      7     -10.4973      2.00000
      8     -10.3013      2.00000
      9      -8.9996      2.00000
     10      -8.7676      2.00000
     11      -8.2918      2.00000
     12      -8.2754      2.00000
     13      -6.5881      2.00000
     14      -6.5261      2.00000
     15      -5.5771      2.00000
[...]

 k-point    16 :       0.2000    0.2000    0.3333
  band No.  band energies     occupation 
      1     -21.0752      2.00000
      2     -20.9689      2.00000
      3     -18.0371      2.00000
      4     -17.8003      2.00000
      5     -16.6733      2.00000
      6     -16.6511      2.00000
      7     -10.2873      2.00000
      8     -10.0314      2.00000
      9      -8.5623      2.00000
     10      -8.5527      2.00000
     11      -8.3246      2.00000
     12      -8.0251      2.00000
     13      -6.8757      2.00000
     14      -6.6769      2.00000
     15      -5.8564      2.00000
     16      -5.4792      2.00000
     17      -5.3214      2.00000
     18      -5.3121      2.00000
     19      -1.8423      2.00000
     20      -1.8127      2.00000
     21      -1.5697      2.00000
     22      -1.4803      2.00000
     23      -1.3848      2.00000
     24      -1.0215      2.00000
     25       4.9947      0.00000
     26       5.1862      0.00000
     27       5.5791      0.00000
     28       7.0258      0.00000
     29       7.5170      0.00000
     30       7.8181      0.00000
     31       8.5170      0.00000
     32       8.5593      0.00000
     33       8.8757      0.00000
     34       9.5282      0.00000
     35       9.8828      0.00000
     36      10.3872      0.00000

 k-point    17 :       0.4000    0.2000    0.3333
  band No.  band energies     occupation 
      1     -21.0423      2.00000
      2     -21.0017      2.00000
      3     -17.9652      2.00000
      4     -17.8744      2.00000
      5     -16.6698      2.00000
      6     -16.6562      2.00000
      7     -10.2129      2.00000
      8     -10.1149      2.00000
      9      -8.5696      2.00000
     10      -8.5636      2.00000
     11      -8.2473      2.00000
     12      -8.1296      2.00000
     13      -6.8157      2.00000
     14      -6.6983      2.00000
     15      -5.7713      2.00000
     16      -5.5831      2.00000
     17      -5.3147      2.00000
     18      -5.2942      2.00000
     19      -1.8533      2.00000
     20      -1.8361      2.00000
     21      -1.5242      2.00000
     22      -1.4995      2.00000
     23      -1.2448      2.00000
     24      -1.0792      2.00000
     25       5.0077      0.00000
     26       5.0916      0.00000
     27       6.0792      0.00000
     28       6.7498      0.00000
     29       7.5982      0.00000
     30       7.8670      0.00000
     31       8.2986      0.00000
     32       8.4428      0.00000
     33       9.0881      0.00000
     34       9.3504      0.00000
     35       9.8100      0.00000
     36      10.2710      0.00000

 k-point    18 :       0.4000    0.4000    0.3333
  band No.  band energies     occupation 
      1     -21.0292      2.00000
      2     -21.0137      2.00000
      3     -17.9281      2.00000
      4     -17.8927      2.00000
      5     -16.6833      2.00000
      6     -16.6748      2.00000
      7     -10.1710      2.00000
      8     -10.1332      2.00000
      9      -8.5726      2.00000
     10      -8.5714      2.00000
     11      -8.1638      2.00000
     12      -8.1026      2.00000
     13      -6.8923      2.00000
     14      -6.8193      2.00000
     15      -5.7121      2.00000
     16      -5.6184      2.00000
     17      -5.3301      2.00000
     18      -5.3173      2.00000
     19      -1.8281      2.00000
     20      -1.8192      2.00000
     21      -1.4566      2.00000
     22      -1.4556      2.00000
     23      -1.1632      2.00000
     24      -1.0898      2.00000
     25       4.9868      0.00000
     26       5.0294      0.00000
     27       6.5259      0.00000
     28       7.0611      0.00000
     29       7.2509      0.00000
     30       7.6217      0.00000
     31       8.1152      0.00000
     32       8.5100      0.00000
     33       8.6034      0.00000
     34       8.9124      0.00000
     35      10.2710      0.00000
     36      10.6739      0.00000

 k-point    19 :       0.0000    0.0000    0.5000
  band No.  band energies     occupation 
      1     -21.0666      2.00000
      2     -20.9221      2.00000
      3     -18.1917      2.00000
      4     -17.7765      2.00000
      5     -16.6597      2.00000
      6     -16.6597      2.00000
      7     -10.2264      2.00000
      8      -9.9521      2.00000
      9      -8.6114      2.00000
     10      -8.6114      2.00000
     11      -7.8457      2.00000
     12      -7.7508      2.00000
     13      -6.8373      2.00000
     14      -6.8373      2.00000
     15      -6.1049      2.00000
     16      -6.0968      2.00000
     17      -5.3143      2.00000
     18      -5.3142      2.00000
     19      -1.7616      2.00000
     20      -1.7311      2.00000
     21      -1.7311      2.00000
     22      -1.2961      2.00000
     23      -1.2960      2.00000
     24      -1.0889      2.00000
     25       5.3424      0.00000
     26       5.3425      0.00000
     27       5.4069      0.00000
     28       6.3536      0.00000
     29       7.6932      0.00000
     30       7.9056      0.00000
     31       8.3099      0.00000
     32       8.3100      0.00000
     33       8.9698      0.00000
     34       9.6994      0.00000
     35      10.1934      0.00000
     36      10.2668      0.00000

 k-point    20 :       0.2000    0.0000    0.5000
  band No.  band energies     occupation 
      1     -21.0529      2.00000
      2     -20.9360      2.00000
      3     -18.1572      2.00000
      4     -17.8229      2.00000
      5     -16.6539      2.00000
      6     -16.6522      2.00000
      7     -10.2086      2.00000
      8      -9.9853      2.00000
      9      -8.6144      2.00000
     10      -8.6126      2.00000
     11      -7.8615      2.00000
     12      -7.7815      2.00000
     13      -6.8810      2.00000
     14      -6.8523      2.00000
     15      -6.0265      2.00000
     16      -5.9600      2.00000
     17      -5.3574      2.00000
     18      -5.3294      2.00000
     19      -1.8499      2.00000
     20      -1.7906      2.00000
     21      -1.5986      2.00000
     22      -1.3327      2.00000
     23      -1.2850      2.00000
     24      -1.0653      2.00000
     25       5.2660      0.00000
     26       5.2757      0.00000
     27       5.6472      0.00000
     28       6.5126      0.00000
     29       7.6779      0.00000
     30       7.9065      0.00000
     31       8.0867      0.00000
     32       8.5573      0.00000
     33       9.0308      0.00000
     34       9.7718      0.00000
     35      10.0290      0.00000
     36      10.0957      0.00000

 k-point    21 :       0.4000    0.0000    0.5000
  band No.  band energies     occupation 
      1     -21.0170      2.00000
      2     -20.9723      2.00000
      3     -18.0626      2.00000
      4     -17.9359      2.00000
      5     -16.6434      2.00000
      6     -16.6418      2.00000
      7     -10.1525      2.00000
      8     -10.0664      2.00000
      9      -8.6182      2.00000
     10      -8.6163      2.00000
     11      -7.8740      2.00000
     12      -7.8412      2.00000
     13      -6.9126      2.00000
     14      -6.8898      2.00000
     15      -5.8515      2.00000
     16      -5.7758      2.00000
     17      -5.4309      2.00000
     18      -5.3841      2.00000
     19      -1.9246      2.00000
     20      -1.8995      2.00000
     21      -1.4486      2.00000
     22      -1.3845      2.00000
     23      -1.2079      2.00000
     24      -1.0884      2.00000
     25       5.1975      0.00000
     26       5.2203      0.00000
     27       6.1475      0.00000
     28       6.6011      0.00000
     29       7.4708      0.00000
     30       7.6959      0.00000
     31       8.3615      0.00000
     32       8.8997      0.00000
     33       8.9976      0.00000
     34       9.3964      0.00000
     35       9.8238      0.00000
     36      10.0760      0.00000

 k-point    22 :       0.2000    0.2000    0.5000
  band No.  band energies     occupation 
      1     -21.0418      2.00000
      2     -20.9471      2.00000
      3     -18.1266      2.00000
      4     -17.8555      2.00000
      5     -16.6658      2.00000
      6     -16.6406      2.00000
      7     -10.1887      2.00000
      8     -10.0045      2.00000
      9      -8.6240      2.00000
     10      -8.6132      2.00000
     11      -7.8683      2.00000
     12      -7.7871      2.00000
     13      -6.8970      2.00000
     14      -6.8507      2.00000
     15      -6.1148      2.00000
     16      -5.7874      2.00000
     17      -5.4129      2.00000
     18      -5.3210      2.00000
     19      -1.8713      2.00000
     20      -1.8314      2.00000
     21      -1.5100      2.00000
     22      -1.3164      2.00000
     23      -1.3033      2.00000
     24      -1.0505      2.00000
     25       5.1924      0.00000
     26       5.2776      0.00000
     27       5.8180      0.00000
     28       6.6846      0.00000
     29       7.6088      0.00000
     30       7.8760      0.00000
     31       8.2016      0.00000
     32       8.4675      0.00000
     33       8.8769      0.00000
     34       9.4848      0.00000
     35       9.7625      0.00000
     36      10.1694      0.00000

 k-point    23 :       0.4000    0.2000    0.5000
  band No.  band energies     occupation 
      1     -21.0125      2.00000
      2     -20.9764      2.00000
      3     -18.0448      2.00000
      4     -17.9409      2.00000
      5     -16.6611      2.00000
      6     -16.6456      2.00000
      7     -10.1322      2.00000
      8     -10.0597      2.00000
      9      -8.6303      2.00000
     10      -8.6237      2.00000
     11      -7.8589      2.00000
     12      -7.8199      2.00000
     13      -6.9061      2.00000
     14      -6.8802      2.00000
     15      -6.0043      2.00000
     16      -5.8006      2.00000
     17      -5.4080      2.00000
     18      -5.3447      2.00000
     19      -1.9084      2.00000
     20      -1.8630      2.00000
     21      -1.4075      2.00000
     22      -1.3576      2.00000
     23      -1.2024      2.00000
     24      -1.0790      2.00000
     25       5.1635      0.00000
     26       5.2082      0.00000
     27       6.2994      0.00000
     28       6.7965      0.00000
     29       7.4882      0.00000
     30       7.7404      0.00000
     31       8.1544      0.00000
     32       8.3960      0.00000
     33       8.8648      0.00000
     34       9.2140      0.00000
     35       9.7949      0.00000
     36      10.2983      0.00000

 k-point    24 :       0.4000    0.4000    0.5000
  band No.  band energies     occupation 
      1     -21.0010      2.00000
      2     -20.9872      2.00000
      3     -18.0027      2.00000
      4     -17.9622      2.00000
      5     -16.6756      2.00000
      6     -16.6659      2.00000
      7     -10.0886      2.00000
      8     -10.0592      2.00000
      9      -8.6448      2.00000
     10      -8.6408      2.00000
     11      -7.8201      2.00000
     12      -7.7983      2.00000
     13      -6.8897      2.00000
     14      -6.8718      2.00000
     15      -6.0925      2.00000
     16      -5.9802      2.00000
     17      -5.3465      2.00000
     18      -5.3260      2.00000
     19      -1.8528      2.00000
     20      -1.8223      2.00000
     21      -1.3552      2.00000
     22      -1.3308      2.00000
     23      -1.1496      2.00000
     24      -1.0867      2.00000
     25       5.1435      0.00000
     26       5.1684      0.00000
     27       6.7256      0.00000
     28       7.1753      0.00000
     29       7.3849      0.00000
     30       7.6601      0.00000
     31       7.9258      0.00000
     32       8.0128      0.00000
     33       8.5166      0.00000
     34       8.6844      0.00000
     35      10.2502      0.00000
     36      10.9110      0.00000


--------------------------------------------------------------------------------------------------------


 soft charge-density along one line, spin component           1
         0         1         2         3         4         5         6         7         8         9
 total charge-density along one line

 pseudopotential strength for first ion, spin component:           1
 12.640  21.271  -0.000  -0.000  -0.000  -0.000  -0.001  -0.000
 21.271  35.793  -0.000  -0.000  -0.000  -0.000  -0.001  -0.000
 -0.000  -0.000  -3.180   0.000   0.004  -5.697   0.000   0.007
 -0.000  -0.000   0.000  -3.176   0.000   0.000  -5.690   0.000
 -0.000  -0.000   0.004   0.000  -3.180   0.007   0.000  -5.697
 -0.000  -0.000  -5.697   0.000   0.007 -10.186   0.000   0.013
 -0.001  -0.001   0.000  -5.690   0.000   0.000 -10.173   0.000
 -0.000  -0.000   0.007   0.000  -5.697   0.013   0.000 -10.186
 total augmentation occupancy for first ion, spin component:           1
  8.088  -2.978   0.000   0.609   0.000   0.000  -0.320   0.000
 -2.978   1.182   0.000  -0.335   0.000   0.000   0.178   0.000
  0.000   0.000   5.040   0.000   2.226  -1.615   0.000  -0.899
  0.609  -0.335   0.000   8.380   0.000   0.000  -3.052   0.000
  0.000   0.000   2.226   0.000   5.040  -0.899   0.000  -1.615
  0.000   0.000  -1.615   0.000  -0.899   0.536   0.000   0.353
 -0.320   0.178   0.000  -3.052   0.000   0.000   1.150   0.000
  0.000   0.000  -0.899   0.000  -1.615   0.353   0.000   0.536


------------------------ aborting loop because EDIFF is reached ----------------------------------------


    FORLOC:  cpu time      0.0052: real time      0.0052
    FORNL :  cpu time      0.1210: real time      0.1210
    FORCOR:  cpu time      0.6153: real time      0.6158
    OFIELD:  cpu time      0.0027: real time      0.0033

 VOLUME and BASIS-vectors are now :
 -----------------------------------------------------------------------------
  energy-cutoff  :     1000.00
  volume of cell :      145.06
      direct lattice vectors                 reciprocal lattice vectors
     5.565000000  0.000000000  0.000000000     0.179694519  0.000000000  0.000000000
     0.000000000  5.565000000  0.000000000     0.000000000  0.179694519  0.000000000
     0.000000000  0.000000000  4.684000000     0.000000000  0.000000000  0.213492741

  length of vectors
     5.565000000  5.565000000  4.684000000     0.179694519  0.179694519  0.213492741


 FORCES acting on ions:
    Electron-Ion                     Ewald-Force                    Non-Local-Force
 -----------------------------------------------------------------------------------------------
   -.192E-05 -.107E-05 0.340E+02   0.252E-03 0.254E-06 -.337E+02   0.183E-19 0.246E-19 -.308E+00
   0.160E-02 0.243E-02 -.340E+02   0.164E-03 -.164E-03 0.337E+02   -.878E-20 -.949E-20 0.308E+00
   0.380E-02 0.289E-02 -.163E+03   -.117E-03 -.397E-03 0.208E+03   -.163E-17 0.197E-18 -.455E+02
   0.290E-02 0.728E-02 0.163E+03   0.126E-03 0.294E-03 -.208E+03   -.189E-18 -.110E-18 0.455E+02
   -.798E+02 -.798E+02 0.564E+02   0.830E+02 0.830E+02 -.581E+02   -.318E+01 -.318E+01 0.161E+01
   0.798E+02 0.798E+02 0.564E+02   -.830E+02 -.830E+02 -.581E+02   0.318E+01 0.318E+01 0.161E+01
   -.798E+02 0.798E+02 -.564E+02   0.830E+02 -.830E+02 0.581E+02   -.318E+01 0.318E+01 -.161E+01
   0.798E+02 -.798E+02 -.564E+02   -.830E+02 0.830E+02 0.581E+02   0.318E+01 -.318E+01 -.161E+01
   -.321E+02 -.321E+02 -.226E+02   0.367E+02 0.367E+02 0.261E+02   -.462E+01 -.462E+01 -.357E+01
   0.321E+02 0.321E+02 -.226E+02   -.367E+02 -.367E+02 0.261E+02   0.462E+01 0.462E+01 -.357E+01
   -.321E+02 0.321E+02 0.226E+02   0.367E+02 -.367E+02 -.261E+02   -.462E+01 0.462E+01 0.357E+01
   0.321E+02 -.321E+02 0.226E+02   -.367E+02 0.367E+02 -.261E+02   0.462E+01 -.462E+01 0.357E+01
   -.101E+02 -.101E+02 0.560E+02   0.101E+02 0.101E+02 -.635E+02   0.206E-02 0.206E-02 0.750E+01
   0.101E+02 0.101E+02 0.560E+02   -.101E+02 -.101E+02 -.635E+02   -.206E-02 -.206E-02 0.750E+01
   -.101E+02 0.101E+02 -.560E+02   0.101E+02 -.101E+02 0.635E+02   0.206E-02 -.206E-02 -.750E+01
   0.101E+02 -.101E+02 -.560E+02   -.101E+02 0.101E+02 0.635E+02   -.206E-02 0.206E-02 -.750E+01
 -----------------------------------------------------------------------------------------------
   0.143E-01 0.232E-01 -.471E-02   -.604E-13 0.320E-13 0.121E-12   -.434E-18 -.889E-15 0.888E-14


 POSITION                                       TOTAL-FORCE (eV/Angst)
 -----------------------------------------------------------------------------------
      0.00000      2.37694      1.52726         0.000000      0.000000      0.017099
      2.78250      5.15944      3.15674        -0.000000      0.000000     -0.017099
      5.56500      2.37694      2.80034        -0.000000      0.000000      0.074217
      2.78250      5.15944      1.88366         0.000000      0.000000     -0.074217
      0.81701      3.19394      0.82848         0.078494      0.078494     -0.070280
      4.74799      1.55995      0.82848        -0.078494     -0.078494     -0.070280
      3.59951      4.34244      3.85552         0.078494     -0.078494      0.070280
      1.96549      0.41144      3.85552        -0.078494      0.078494      0.070280
      1.44738      3.82433      1.32525        -0.022523     -0.022523     -0.013748
      4.11762      0.92955      1.32525         0.022523      0.022523     -0.013748
      4.22988      3.71205      3.35875        -0.022523      0.022523      0.013748
      1.33512      1.04183      3.35875         0.022523     -0.022523      0.013748
      0.81112      3.18806      4.49318         0.014987      0.014987      0.026007
      4.75388      1.56582      4.49317        -0.014987     -0.014987      0.026007
      3.59362      4.34832      0.19083         0.014987     -0.014987     -0.026007
      1.97138      0.40556      0.19082        -0.014987      0.014987     -0.026007
 -----------------------------------------------------------------------------------
    total drift:                                0.014329      0.023202     -0.004712


--------------------------------------------------------------------------------------------------------



  FREE ENERGIE OF THE ION-ELECTRON SYSTEM (eV)
  ---------------------------------------------------
  free  energy   TOTEN  =       -85.05420111 eV

  energy  without entropy=      -85.05420111  energy(sigma->0) =      -85.05420111



--------------------------------------------------------------------------------------------------------


    POTLOK:  cpu time      0.5801: real time      0.5802


--------------------------------------------------------------------------------------------------------


 stress matrix after NEB project (eV)
      0.00000      0.00000      0.00000
      0.00000      0.00000      0.00000
      0.00000      0.00000      0.00000
  FORCES: max atom, RMS     0.131384    0.074985
  FORCE total and by dimension    0.299941    0.078494
  Stress total and by dimension    0.000000    0.000000
     LOOP+:  cpu time     37.1294: real time     37.5405
    4ORBIT:  cpu time      0.0000: real time      0.0000

 total amount of memory used by VASP MPI-rank0    37265. kBytes
=======================================================================

   base      :      30000. kBytes
   nonl-proj :       2099. kBytes
   fftplans  :        605. kBytes
   grid      :       1075. kBytes
   one-center:          3. kBytes
   wavefun   :       3483. kBytes

  
  
 General timing and accounting informations for this job:
 ========================================================
  
                  Total CPU time used (sec):       43.864
                            User time (sec):       41.960
                          System time (sec):        1.904
                         Elapsed time (sec):       44.428
  
                   Maximum memory used (kb):      194488.
                   Average memory used (kb):          N/A
  
                          Minor page faults:        91169
                          Major page faults:          499
                 Voluntary context switches:         2961
