       N       E                     dE             d eps       ncg     rms          ort
DAV:   1     0.164169183347E+03    0.16417E+03   -0.39870E+03    12   0.100E+03
DAV:   2     0.568083328392E+02   -0.10736E+03   -0.10699E+03    12   0.148E+02
DAV:   3     0.630213178679E+01   -0.50506E+02   -0.48938E+02    12   0.118E+02
DAV:   4    -0.178765357889E+02   -0.24179E+02   -0.24133E+02    12   0.620E+01
DAV:   5    -0.199303396318E+02   -0.20538E+01   -0.20525E+01    12   0.199E+01
SDA:   6    -0.143124381429E+02    0.56179E+01   -0.20525E+01    12   0.241E+02 0.000E+00
CGA:   7    -0.173598226562E+02   -0.30474E+01   -0.30033E+01    12   0.144E+01 0.133E+00
CGA:   8    -0.176614806367E+02   -0.30166E+00   -0.30170E+00    12   0.456E+00-0.329E-02
CGA:   9    -0.177773705569E+02   -0.11589E+00   -0.11568E+00    12   0.168E+00 0.507E-02
CGA:  10    -0.178215053585E+02   -0.44135E-01   -0.43937E-01    12   0.504E-01 0.347E-02
CGA:  11    -0.178355975905E+02   -0.14092E-01   -0.14020E-01    12   0.166E-01 0.819E-03
CGA:  12    -0.178402205060E+02   -0.46229E-02   -0.46223E-02    12   0.400E-02-0.130E-04
CGA:  13    -0.178414348792E+02   -0.12144E-02   -0.12143E-02    12   0.118E-02 0.628E-05
CGA:  14    -0.178417912282E+02   -0.35635E-03   -0.35595E-03    12   0.295E-03 0.219E-05
CGA:  15    -0.178418892658E+02   -0.98038E-04   -0.98350E-04    12   0.905E-04-0.285E-05
CGA:  16    -0.178419213173E+02   -0.32051E-04   -0.32245E-04    12   0.287E-04-0.136E-05
CGA:  17    -0.178419322675E+02   -0.10950E-04   -0.11021E-04    12   0.106E-04-0.448E-06
CGA:  18    -0.178419365775E+02   -0.43100E-05   -0.43445E-05    12   0.404E-05-0.198E-06
CGA:  19    -0.178419382384E+02   -0.16609E-05   -0.16967E-05    12   0.155E-05-0.195E-06
CGA:  20    -0.178419389175E+02   -0.67908E-06   -0.73957E-06    12   0.664E-06-0.243E-06
CGA:  21    -0.178419391594E+02   -0.24189E-06   -0.29451E-06    12   0.308E-06-0.201E-06
CGA:  22    -0.178419392472E+02   -0.87806E-07   -0.98669E-07    12   0.103E-06-0.551E-07
   1 F= -.17841939E+02 E0= -.17841939E+02  d E =-.178419E+02
       N       E                     dE             d eps       ncg     rms          ort
SDA:   1    -0.178419364854E+02    0.26740E-05    0.00000E+00    12   0.574E-05 0.000E+00
CGA:   2    -0.178419382949E+02   -0.18095E-05   -0.18106E-05    12   0.325E-05-0.209E-07
CGA:   3    -0.178419390013E+02   -0.70638E-06   -0.70748E-06    12   0.683E-06 0.986E-08
CGA:   4    -0.178419391432E+02   -0.14197E-06   -0.13999E-06    12   0.128E-06-0.291E-07
CGA:   5    -0.178419391707E+02   -0.27459E-07   -0.27888E-07    12   0.335E-07-0.435E-09
   2 F= -.17841939E+02 E0= -.17841939E+02  d E =0.764667E-07
       N       E                     dE             d eps       ncg     rms          ort
SDA:   1    -0.178419374325E+02    0.17107E-05    0.00000E+00    12   0.393E-05 0.000E+00
CGA:   2    -0.178419386737E+02   -0.12412E-05   -0.12410E-05    12   0.224E-05 0.233E-07
CGA:   3    -0.178419391669E+02   -0.49325E-06   -0.49457E-06    12   0.495E-06 0.134E-07
CGA:   4    -0.178419392477E+02   -0.80781E-07   -0.84304E-07    12   0.738E-07 0.278E-07
   3 F= -.17841939E+02 E0= -.17841939E+02  d E =-.542059E-09
       N       E                     dE             d eps       ncg     rms          ort
SDA:   1    -0.178419392635E+02   -0.96563E-07    0.00000E+00    12   0.454E-07 0.000E+00
CGA:   2    -0.178419392696E+02   -0.60718E-08   -0.74899E-08    12   0.144E-07 0.101E-07
   4 F= -.17841939E+02 E0= -.17841939E+02  d E =-.223954E-07
       N       E                     dE             d eps       ncg     rms          ort
SDA:   1    -0.178419392719E+02   -0.84528E-08    0.00000E+00    12   0.794E-08 0.000E+00
CGA:   2    -0.178419392717E+02    0.18736E-09   -0.75595E-09    12   0.333E-08 0.474E-08
   5 F= -.17841939E+02 E0= -.17841939E+02  d E =-.245891E-07
       N       E                     dE             d eps       ncg     rms          ort
SDA:   1    -0.178419392710E+02    0.91495E-09    0.00000E+00    12   0.263E-08 0.000E+00
CGA:   2    -0.178419392710E+02    0.45475E-10   -0.49712E-09    12   0.156E-08 0.122E-08
   6 F= -.17841939E+02 E0= -.17841939E+02  d E =-.238160E-07
       N       E                     dE             d eps       ncg     rms          ort
SDA:   1    -0.178419392717E+02   -0.64574E-09    0.00000E+00    12   0.125E-08 0.000E+00
CGA:   2    -0.178419392714E+02    0.27649E-09   -0.14269E-09    12   0.642E-09 0.779E-09
   7 F= -.17841939E+02 E0= -.17841939E+02  d E =-.242308E-07
       N       E                     dE             d eps       ncg     rms          ort
SDA:   1    -0.178419392716E+02    0.10004E-09    0.00000E+00    12   0.744E-09 0.000E+00
CGA:   2    -0.178419392669E+02    0.46839E-08   -0.35306E-08    12   0.110E-07-0.181E-08
   8 F= -.17841939E+02 E0= -.17841939E+02  d E =-.197233E-07
       N       E                     dE             d eps       ncg     rms          ort
SDA:   1    -0.178419392708E+02    0.72578E-09    0.00000E+00    12   0.389E-08 0.000E+00
CGA:   2    -0.178419392709E+02   -0.63665E-10   -0.36367E-09    12   0.398E-09 0.382E-09
   9 F= -.17841939E+02 E0= -.17841939E+02  d E =-.237451E-07
       N       E                     dE             d eps       ncg     rms          ort
SDA:   1    -0.178419392700E+02    0.86038E-09    0.00000E+00    12   0.358E-09 0.000E+00
CGA:   2    -0.178419392708E+02   -0.86038E-09    0.17326E-10    12   0.112E-08-0.418E-09
  10 F= -.17841939E+02 E0= -.17841939E+02  d E =-.236814E-07
       N       E                     dE             d eps       ncg     rms          ort
SDA:   1    -0.178419392720E+02   -0.19954E-08    0.00000E+00    12   0.391E-08 0.000E+00
CGA:   2    -0.178419392718E+02    0.22555E-09   -0.24372E-09    12   0.544E-09 0.140E-08
  11 F= -.17841939E+02 E0= -.17841939E+02  d E =-.245909E-07
       N       E                     dE             d eps       ncg     rms          ort
SDA:   1    -0.178419392700E+02    0.20191E-08    0.00000E+00    12   0.832E-09 0.000E+00
CGA:   2    -0.178419392704E+02   -0.44383E-09    0.21349E-09    12   0.279E-08-0.140E-08
  12 F= -.17841939E+02 E0= -.17841939E+02  d E =-.232412E-07
       N       E                     dE             d eps       ncg     rms          ort
SDA:   1    -0.178419392731E+02   -0.30941E-08    0.00000E+00    12   0.266E-07 0.000E+00
CGA:   2    -0.178419392726E+02    0.46566E-09   -0.19733E-08    12   0.348E-08 0.822E-08
  13 F= -.17841939E+02 E0= -.17841939E+02  d E =-.254258E-07
       N       E                     dE             d eps       ncg     rms          ort
SDA:   1    -0.178419392660E+02    0.70740E-08    0.00000E+00    12   0.814E-08 0.000E+00
CGA:   2    -0.178419392676E+02   -0.16698E-08   -0.31674E-08    12   0.271E-07-0.134E-07
  14 F= -.17841939E+02 E0= -.17841939E+02  d E =-.204873E-07
       N       E                     dE             d eps       ncg     rms          ort
SDA:   1    -0.178419392742E+02   -0.82018E-08    0.00000E+00    12   0.292E-08 0.000E+00
CGA:   2    -0.178419392736E+02    0.57844E-09   -0.10293E-09    12   0.137E-08 0.205E-08
  15 F= -.17841939E+02 E0= -.17841939E+02  d E =-.264408E-07
       N       E                     dE             d eps       ncg     rms          ort
SDA:   1    -0.178419392716E+02    0.25793E-08    0.00000E+00    12   0.132E-08 0.000E+00
CGA:   2    -0.178419392715E+02    0.14370E-09   -0.67328E-10    12   0.403E-09 0.725E-09
  16 F= -.17841939E+02 E0= -.17841939E+02  d E =-.242962E-07
       N       E                     dE             d eps       ncg     rms          ort
SDA:   1    -0.178419392727E+02   -0.11423E-08    0.00000E+00    12   0.515E-09 0.000E+00
CGA:   2    -0.178419392726E+02    0.18190E-09   -0.13458E-10    12   0.379E-09 0.448E-09
  17 F= -.17841939E+02 E0= -.17841939E+02  d E =-.254004E-07
       N       E                     dE             d eps       ncg     rms          ort
SDA:   1    -0.178419392706E+02    0.21573E-08    0.00000E+00    12   0.336E-09 0.000E+00
CGA:   2    -0.178419392709E+02   -0.35106E-09    0.96074E-11    12   0.241E-09-0.717E-10
  18 F= -.17841939E+02 E0= -.17841939E+02  d E =-.237760E-07
       N       E                     dE             d eps       ncg     rms          ort
SDA:   1    -0.178419392716E+02   -0.10641E-08    0.00000E+00    12   0.668E-10 0.000E+00
CGA:   2    -0.178419392716E+02    0.72760E-10   -0.24680E-11    12   0.410E-10 0.527E-10
  19 F= -.17841939E+02 E0= -.17841939E+02  d E =-.244163E-07
