 vasp.6.4.1 05Apr23 (build Jun  6 2023 14:36:51) complex                         
 executed on        HPECrayEX_GCC date 2024.08.20  14:38:49
 running  256 mpi-ranks, with    1 threads/rank, on    2 nodes
 distrk:  each k-point on  128 cores,    2 groups
 distr:  one band on NCORE=  32 cores,    4 groups


--------------------------------------------------------------------------------------------------------


 INCAR:
   ALGO = Conjugate
   KPAR = 2
   NCORE = 32
   ISMEAR = 0
   SIGMA = 0.01
   PREC = Accurate
   EDIFF = 1E-7
   ENCUT = 1000
   ISIF = 0
   METAGGA = SCAN
   LASPH = .TRUE.
   SYMPREC = 1E-7
   LWAVE = .FALSE.
   LCHARGE = .FALSE.

 POTCAR:    PAW_PBE N_h 06Feb2004                 
 POTCAR:    PAW_PBE C_h 06Feb2004                 
 POTCAR:    PAW_PBE H_h 06Feb2004                 
 POTCAR:    PAW_PBE N_h 06Feb2004                 
   VRHFIN =N: s2p3                                                                                  
   LEXCH  = PE                                                                                      
   EATOM  =   264.5486 eV,   19.4438 Ry                                                             
                                                                                                    
   TITEL  = PAW_PBE N_h 06Feb2004                                                                   
   LULTRA =        F    use ultrasoft PP ?                                                          
   IUNSCR =        1    unscreen: 0-lin 1-nonlin 2-no                                               
   RPACOR =    0.800    partial core radius                                                         
   POMASS =   14.001; ZVAL   =    5.000    mass and valenz                                          
   RCORE  =    1.100    outmost cutoff radius                                                       
   RWIGS  =    1.480; RWIGS  =    0.783    wigner-seitz radius (au A)                               
   ENMAX  =  700.000; ENMIN  =  500.000 eV                                                          
   ICORE  =        2    local potential                                                             
   LCOR   =        T    correct aug charges                                                         
   LPAW   =        T    paw PP                                                                      
   EAUG   =  904.640                                                                                
   DEXC   =    0.000                                                                                
   RMAX   =    1.127    core radius for proj-oper                                                   
   RAUG   =    1.300    factor for augmentation sphere                                              
   RDEP   =    1.115    radius for radial grids                                                     
   RDEPT  =    1.106    core radius for aug-charge                                                  
                                                                                                    
   Atomic configuration                                                                             
    4 entries                                                                                       
     n  l   j            E        occ.                                                              
     1  0  0.50      -384.7179   2.0000                                                             
     2  0  0.50       -18.5828   2.0000                                                             
     2  1  0.50        -7.0898   3.0000                                                             
     3  2  1.50        -6.8029   0.0000                                                             
   Description                                                                                      
     l       E           TYP  RCUT    TYP  RCUT                                                     
     0    -18.5828117     23  1.100                                                                 
     0    -15.0750597     23  1.100                                                                 
     1     -7.0897851     23  1.100                                                                 
     1     -1.9663412     23  1.100                                                                 
     2     -6.8029130      7  1.100                                                                 
  local pseudopotential read in
  partial core-charges read in
  partial kinetic energy density read in
  kinetic energy density of atom read in
  atomic valenz-charges read in
  non local Contribution for L=           0  read in
    real space projection operators read in
  non local Contribution for L=           0  read in
    real space projection operators read in
  non local Contribution for L=           1  read in
    real space projection operators read in
  non local Contribution for L=           1  read in
    real space projection operators read in
    PAW grid and wavefunctions read in

   number of l-projection  operators is LMAX  =           4
   number of lm-projection operators is LMMAX =           8

 POTCAR:    PAW_PBE C_h 06Feb2004                 
   VRHFIN =C: s2p2                                                                                  
   LEXCH  = PE                                                                                      
   EATOM  =   147.1560 eV,   10.8157 Ry                                                             
                                                                                                    
   TITEL  = PAW_PBE C_h 06Feb2004                                                                   
   LULTRA =        F    use ultrasoft PP ?                                                          
   IUNSCR =        1    unscreen: 0-lin 1-nonlin 2-no                                               
   RPACOR =    0.800    partial core radius                                                         
   POMASS =   12.011; ZVAL   =    4.000    mass and valenz                                          
   RCORE  =    1.100    outmost cutoff radius                                                       
   RWIGS  =    1.630; RWIGS  =    0.863    wigner-seitz radius (au A)                               
   ENMAX  =  700.000; ENMIN  =  500.000 eV                                                          
   ICORE  =        2    local potential                                                             
   LCOR   =        T    correct aug charges                                                         
   LPAW   =        T    paw PP                                                                      
   EAUG   =  946.768                                                                                
   DEXC   =    0.000                                                                                
   RMAX   =    1.128    core radius for proj-oper                                                   
   RAUG   =    1.300    factor for augmentation sphere                                              
   RDEP   =    1.162    radius for radial grids                                                     
   RDEPT  =    1.088    core radius for aug-charge                                                  
                                                                                                    
   Atomic configuration                                                                             
    4 entries                                                                                       
     n  l   j            E        occ.                                                              
     1  0  0.50      -273.3789   2.0000                                                             
     2  0  0.50       -13.7508   2.0000                                                             
     2  1  0.50        -5.2854   2.0000                                                             
     3  2  1.50        -5.4423   0.0000                                                             
   Description                                                                                      
     l       E           TYP  RCUT    TYP  RCUT                                                     
     0    -13.7508458     23  1.100                                                                 
     0     -8.2022199     23  1.100                                                                 
     1     -5.2854383     23  1.100                                                                 
     1      1.1560700     23  1.100                                                                 
     2     -5.4423304      7  1.100                                                                 
  local pseudopotential read in
  partial core-charges read in
  partial kinetic energy density read in
  atomic valenz-charges read in
  non local Contribution for L=           0  read in
    real space projection operators read in
  non local Contribution for L=           0  read in
    real space projection operators read in
  non local Contribution for L=           1  read in
    real space projection operators read in
  non local Contribution for L=           1  read in
    real space projection operators read in
    PAW grid and wavefunctions read in

   number of l-projection  operators is LMAX  =           4
   number of lm-projection operators is LMMAX =           8

 POTCAR:    PAW_PBE H_h 06Feb2004                 
   VRHFIN =H: ultrasoft test                                                                        
   LEXCH  = PE                                                                                      
   EATOM  =    12.4884 eV,    0.9179 Ry                                                             
                                                                                                    
   TITEL  = PAW_PBE H_h 06Feb2004                                                                   
   LULTRA =        F    use ultrasoft PP ?                                                          
   IUNSCR =        0    unscreen: 0-lin 1-nonlin 2-no                                               
   RPACOR =    0.000    partial core radius                                                         
   POMASS =    1.000; ZVAL   =    1.000    mass and valenz                                          
   RCORE  =    0.800    outmost cutoff radius                                                       
   RWIGS  =    0.700; RWIGS  =    0.370    wigner-seitz radius (au A)                               
   ENMAX  =  700.000; ENMIN  =  350.000 eV                                                          
   RCLOC  =    0.701    cutoff for local pot                                                        
   LCOR   =        T    correct aug charges                                                         
   LPAW   =        T    paw PP                                                                      
   EAUG   = 1000.000                                                                                
   RMAX   =    0.819    core radius for proj-oper                                                   
   RAUG   =    1.000    factor for augmentation sphere                                              
   RDEP   =    0.817    radius for radial grids                                                     
   RDEPT  =    0.817    core radius for aug-charge                                                  
                                                                                                    
   Atomic configuration                                                                             
    2 entries                                                                                       
     n  l   j            E        occ.                                                              
     1  0  0.50        -6.4927   1.0000                                                             
     2  1  0.50        -3.4015   0.0000                                                             
   Description                                                                                      
     l       E           TYP  RCUT    TYP  RCUT                                                     
     0     -6.4927493     23  0.800                                                                 
     0      6.8029130     23  0.800                                                                 
     1     -6.8029130     23  0.800                                                                 
  local pseudopotential read in
  atomic valenz-charges read in
  non local Contribution for L=           0  read in
    real space projection operators read in
  non local Contribution for L=           0  read in
    real space projection operators read in
  non local Contribution for L=           1  read in
    real space projection operators read in
    PAW grid and wavefunctions read in

   number of l-projection  operators is LMAX  =           3
   number of lm-projection operators is LMMAX =           5

 -----------------------------------------------------------------------------
|                                                                             |
|               ----> ADVICE to this user running VASP <----                  |
|                                                                             |
|     You have a (more or less) 'large supercell' and for larger cells it     |
|     might be more efficient to use real-space projection operators.         |
|     Therefore, try LREAL= Auto in the INCAR file.                           |
|     Mind: For very accurate calculation, you might also keep the            |
|     reciprocal projection scheme (i.e. LREAL=.FALSE.).                      |
|                                                                             |
 -----------------------------------------------------------------------------

  PAW_PBE N_h 06Feb2004                 :
 energy of atom  1       EATOM= -264.5486
 kinetic energy error for atom=    0.0081 (will be added to EATOM!!)
  PAW_PBE C_h 06Feb2004                 :
 energy of atom  2       EATOM= -147.1560
 kinetic energy error for atom=    0.0031 (will be added to EATOM!!)
  PAW_PBE H_h 06Feb2004                 :
 energy of atom  3       EATOM=  -12.4884
 kinetic energy error for atom=    0.0006 (will be added to EATOM!!)


 POSCAR:  N  C  H
  positions in cartesian coordinates
  No initial velocities read in

 METAGGA = SCAN                                        LMAXTAU =  6    LMIXTAU =  F

 exchange correlation table for  LEXCH =        8
   RHO(1)=    0.500       N(1)  =     2000
   RHO(2)=  100.500       N(2)  =     4000

 VTST: version 4.1, (05/19/21)

 CHAIN: initializing optimizer
 
 OPT: Using VASP Dynamics algorithm
 CHAIN: Read ICHAIN            0

 POSCAR:  N  C  H
  positions in cartesian coordinates
  No initial velocities read in



--------------------------------------------------------------------------------------------------------


 ion  position               nearest neighbor table
   1  0.144  0.166  0.108-  33 1.03  25 1.03  17 1.31
   2  0.856  0.834  0.892-  34 1.03  26 1.03  18 1.31
   3  0.356  0.834  0.608-  35 1.03  27 1.03  19 1.31
   4  0.644  0.166  0.392-  36 1.03  28 1.03  20 1.31
   5  0.856  0.666  0.392-  37 1.03  29 1.03  21 1.31
   6  0.144  0.334  0.608-  38 1.03  30 1.03  22 1.31
   7  0.644  0.334  0.892-  39 1.03  31 1.03  23 1.31
   8  0.356  0.666  0.108-  40 1.03  32 1.03  24 1.31
   9  0.146  0.997  0.350-  17 1.17
  10  0.854  0.003  0.650-  18 1.17
  11  0.354  0.003  0.850-  19 1.17
  12  0.646  0.997  0.150-  20 1.17
  13  0.854  0.497  0.150-  21 1.17
  14  0.146  0.503  0.850-  22 1.17
  15  0.646  0.503  0.650-  23 1.17
  16  0.354  0.497  0.350-  24 1.17
  17  0.145  0.074  0.235-   9 1.17   1 1.31
  18  0.855  0.926  0.765-  10 1.17   2 1.31
  19  0.355  0.926  0.735-  11 1.17   3 1.31
  20  0.645  0.074  0.265-  12 1.17   4 1.31
  21  0.855  0.574  0.265-  13 1.17   5 1.31
  22  0.145  0.426  0.735-  14 1.17   6 1.31
  23  0.645  0.426  0.765-  15 1.17   7 1.31
  24  0.355  0.574  0.235-  16 1.17   8 1.31
  25  0.210  0.101  0.019-   1 1.03
  26  0.790  0.899  0.981-   2 1.03
  27  0.290  0.899  0.519-   3 1.03
  28  0.710  0.101  0.481-   4 1.03
  29  0.790  0.601  0.481-   5 1.03
  30  0.210  0.399  0.519-   6 1.03
  31  0.710  0.399  0.981-   7 1.03
  32  0.290  0.601  0.019-   8 1.03
  33  0.046  0.282  0.095-   1 1.03
  34  0.954  0.718  0.905-   2 1.03
  35  0.454  0.718  0.594-   3 1.03
  36  0.546  0.282  0.405-   4 1.03
  37  0.954  0.782  0.406-   5 1.03
  38  0.046  0.218  0.594-   6 1.03
  39  0.546  0.218  0.905-   7 1.03
  40  0.454  0.782  0.095-   8 1.03

  LATTYP: Found a simple orthorhombic cell.
 ALAT       =     6.6280000000
 B/A-ratio  =     1.0343995172
 C/A-ratio  =     1.3800543150
  
  Lattice vectors:
  
 A1 = (   0.0000000000,  -6.6280000000,   0.0000000000)
 A2 = (   6.8560000000,   0.0000000000,   0.0000000000)
 A3 = (   0.0000000000,   0.0000000000,   9.1470000000)


Analysis of symmetry for initial positions (statically):
=====================================================================
 Subroutine PRICEL returns:
 Original cell was already a primitive cell.
 

 Routine SETGRP: Setting up the symmetry group for a 
 simple orthorhombic supercell.


 Subroutine GETGRP returns: Found  1 space group operations
 (whereof  1 operations were pure point group operations)
 out of a pool of  8 trial point group operations.


The static configuration has the point symmetry C_1 .


Analysis of symmetry for dynamics (positions and initial velocities):
=====================================================================
 Subroutine PRICEL returns:
 Original cell was already a primitive cell.
 

 Routine SETGRP: Setting up the symmetry group for a 
 simple orthorhombic supercell.


 Subroutine GETGRP returns: Found  1 space group operations
 (whereof  1 operations were pure point group operations)
 out of a pool of  8 trial point group operations.


The dynamic configuration has the point symmetry C_1 .


 Subroutine INISYM returns: Found  1 space group operations
 (whereof  1 operations are pure point group operations),
 and found     1 'primitive' translations


----------------------------------------------------------------------------------------

                                     Primitive cell                                     

  volume of cell :     415.6540

  direct lattice vectors                    reciprocal lattice vectors
     6.856000000  0.000000000  0.000000000     0.145857643  0.000000000  0.000000000
     0.000000000  6.628000000  0.000000000     0.000000000  0.150875075  0.000000000
     0.000000000  0.000000000  9.147000000     0.000000000  0.000000000  0.109325462

  length of vectors
     6.856000000  6.628000000  9.147000000     0.145857643  0.150875075  0.109325462

  position of ions in fractional coordinates (direct lattice)
     0.143930733  0.166145508  0.108317168
     0.856069582  0.833859835  0.891682563
     0.356072303  0.833861260  0.608317245
     0.643928580  0.166144304  0.391683022
     0.856072073  0.666146724  0.391683865
     0.143928031  0.333857930  0.608316301
     0.643928632  0.333857963  0.891682734
     0.356069295  0.666146835  0.108318911
     0.146468505  0.997190838  0.350258895
     0.853531025  0.002814810  0.649740955
     0.353532148  0.002805528  0.850254528
     0.646471688  0.997194472  0.149747710
     0.853534634  0.497189310  0.149747627
     0.146464762  0.502815926  0.850252307
     0.646467064  0.502805666  0.649737442
     0.353536455  0.497192848  0.350264085
     0.144521698  0.074337867  0.234776897
     0.855478271  0.925667762  0.765223147
     0.355478444  0.925664261  0.734779199
     0.644523667  0.074338457  0.265222176
     0.855477358  0.574336336  0.265217807
     0.144522328  0.425668646  0.734782160
     0.644517261  0.425667228  0.765217701
     0.355481008  0.574336118  0.234784595
     0.210262133  0.101169491  0.018649582
     0.789737434  0.898834450  0.981350445
     0.289744085  0.898832635  0.518655410
     0.710255280  0.101174648  0.481346209
     0.789743234  0.601175397  0.481350742
     0.210256233  0.398829556  0.518649257
     0.710259024  0.398836817  0.981350549
     0.289739792  0.601168672  0.018649451
     0.046049261  0.282408777  0.094501239
     0.953950919  0.717596302  0.905498169
     0.453943273  0.717602929  0.594498936
     0.546055938  0.282401728  0.405499684
     0.953950324  0.782407493  0.405501363
     0.046049081  0.217597828  0.594498680
     0.546043803  0.217592277  0.905497175
     0.453956166  0.782411587  0.094503019

  ion indices of the primitive-cell ions
   primitive index   ion index
                 1           1
                 2           2
                 3           3
                 4           4
                 5           5
                 6           6
                 7           7
                 8           8
                 9           9
                10          10
                11          11
                12          12
                13          13
                14          14
                15          15
                16          16
                17          17
                18          18
                19          19
                20          20
                21          21
                22          22
                23          23
                24          24
                25          25
                26          26
                27          27
                28          28
                29          29
                30          30
                31          31
                32          32
                33          33
                34          34
                35          35
                36          36
                37          37
                38          38
                39          39
                40          40

----------------------------------------------------------------------------------------



 KPOINTS: auto                                    

Automatic generation of k-mesh.
 Grid dimensions read from file:
 generate k-points for:    4    4    3

 Generating k-lattice:

  Cartesian coordinates                     Fractional coordinates (reciprocal lattice)
     0.036464411  0.000000000  0.000000000     0.250000000  0.000000000  0.000000000
     0.000000000  0.037718769  0.000000000     0.000000000  0.250000000  0.000000000
     0.000000000  0.000000000  0.036441821     0.000000000  0.000000000  0.333333333

  Length of vectors
     0.036464411  0.037718769  0.036441821

  Shift w.r.t. Gamma in fractional coordinates (k-lattice)
     0.000000000  0.000000000  0.000000000

 
 Subroutine IBZKPT returns following result:
 ===========================================
 
 Found     26 irreducible k-points:
 
 Following reciprocal coordinates:
            Coordinates               Weight
  0.000000  0.000000  0.000000      1.000000
  0.250000  0.000000  0.000000      2.000000
  0.500000  0.000000  0.000000      1.000000
  0.000000  0.250000  0.000000      2.000000
  0.250000  0.250000  0.000000      2.000000
 -0.250000  0.250000  0.000000      2.000000
  0.500000  0.250000  0.000000      2.000000
  0.000000  0.500000  0.000000      1.000000
  0.250000  0.500000  0.000000      2.000000
  0.500000  0.500000  0.000000      1.000000
  0.000000  0.000000  0.333333      2.000000
  0.250000  0.000000  0.333333      2.000000
  0.250000  0.000000 -0.333333      2.000000
  0.500000  0.000000  0.333333      2.000000
  0.000000  0.250000  0.333333      2.000000
  0.000000  0.250000 -0.333333      2.000000
  0.250000  0.250000  0.333333      2.000000
 -0.250000  0.250000 -0.333333      2.000000
  0.250000 -0.250000 -0.333333      2.000000
 -0.250000 -0.250000  0.333333      2.000000
  0.500000  0.250000  0.333333      2.000000
  0.500000  0.250000 -0.333333      2.000000
  0.000000  0.500000  0.333333      2.000000
  0.250000  0.500000  0.333333      2.000000
  0.250000  0.500000 -0.333333      2.000000
  0.500000  0.500000  0.333333      2.000000
 
 Following cartesian coordinates:
            Coordinates               Weight
  0.000000  0.000000  0.000000      1.000000
  0.036464  0.000000  0.000000      2.000000
  0.072929  0.000000  0.000000      1.000000
  0.000000  0.037719  0.000000      2.000000
  0.036464  0.037719  0.000000      2.000000
 -0.036464  0.037719  0.000000      2.000000
  0.072929  0.037719  0.000000      2.000000
  0.000000  0.075438  0.000000      1.000000
  0.036464  0.075438  0.000000      2.000000
  0.072929  0.075438  0.000000      1.000000
  0.000000  0.000000  0.036442      2.000000
  0.036464  0.000000  0.036442      2.000000
  0.036464  0.000000 -0.036442      2.000000
  0.072929  0.000000  0.036442      2.000000
  0.000000  0.037719  0.036442      2.000000
  0.000000  0.037719 -0.036442      2.000000
  0.036464  0.037719  0.036442      2.000000
 -0.036464  0.037719 -0.036442      2.000000
  0.036464 -0.037719 -0.036442      2.000000
 -0.036464 -0.037719  0.036442      2.000000
  0.072929  0.037719  0.036442      2.000000
  0.072929  0.037719 -0.036442      2.000000
  0.000000  0.075438  0.036442      2.000000
  0.036464  0.075438  0.036442      2.000000
  0.036464  0.075438 -0.036442      2.000000
  0.072929  0.075438  0.036442      2.000000
 


--------------------------------------------------------------------------------------------------------




 Dimension of arrays:
   k-points           NKPTS =     26   k-points in BZ     NKDIM =     26   number of bands    NBANDS=     88
   number of dos      NEDOS =    301   number of ions     NIONS =     40
   non local maximal  LDIM  =      4   non local SUM 2l+1 LMDIM =      8
   total plane-waves  NPLWV = 483840
   max r-space proj   IRMAX =      1   max aug-charges    IRDMAX=   8466
   dimension x,y,z NGX =    72 NGY =   70 NGZ =   96
   dimension x,y,z NGXF=   144 NGYF=  140 NGZF=  192
   support grid    NGXF=   144 NGYF=  140 NGZF=  192
   ions per type =              16   8  16
   NGX,Y,Z   is equivalent  to a cutoff of  17.46, 17.56, 17.45 a.u.
   NGXF,Y,Z  is equivalent  to a cutoff of  34.92, 35.12, 34.90 a.u.

 SYSTEM =  unknown system                          
 POSCAR =   N  C  H                                

 Startparameter for this run:
   NWRITE =      2    write-flag & timer
   PREC   = accura    normal or accurate (medium, high low for compatibility)
   ISTART =      0    job   : 0-new  1-cont  2-samecut
   ICHARG =      2    charge: 1-file 2-atom 10-const
   ISPIN  =      1    spin polarized calculation?
   LNONCOLLINEAR =      F non collinear calculations
   LSORBIT =      F    spin-orbit coupling
   INIWAV =      1    electr: 0-lowe 1-rand  2-diag
   LASPH  =      T    aspherical Exc in radial PAW
 Electronic Relaxation 1
   ENCUT  = 1000.0 eV  73.50 Ry    8.57 a.u.  17.68 17.09 23.58*2*pi/ulx,y,z
   ENINI  = 1000.0     initial cutoff
   ENAUG  = 1000.0 eV  augmentation charge cutoff
   NELM   =     60;   NELMIN=  2; NELMDL= -5     # of ELM steps 
   EDIFF  = 0.1E-06   stopping-criterion for ELM
   LREAL  =      F    real-space projection
   NLSPLINE    = F    spline interpolate recip. space projectors
   LCOMPAT=      F    compatible to vasp.4.4
   GGA_COMPAT  = T    GGA compatible to vasp.4.4-vasp.4.6
   LMAXPAW     = -100 max onsite density
   LMAXMIX     =    2 max onsite mixed and CHGCAR
   VOSKOWN=      0    Vosko Wilk Nusair interpolation
   ROPT   =    0.00000   0.00000   0.00000
 Ionic relaxation
   EDIFFG = 0.1E-05   stopping-criterion for IOM
   NSW    =      0    number of steps for IOM
   NBLOCK =      1;   KBLOCK =      1    inner block; outer block 
   IBRION =     -1    ionic relax: 0-MD 1-quasi-New 2-CG
   NFREE  =      0    steps in history (QN), initial steepest desc. (CG)
   ISIF   =      0    stress and relaxation
   IWAVPR =     10    prediction:  0-non 1-charg 2-wave 3-comb
   ISYM   =      2    0-nonsym 1-usesym 2-fastsym
   LCORR  =      T    Harris-Foulkes like correction to forces

   POTIM  = 0.5000    time-step for ionic-motion
   TEIN   =    0.0    initial temperature
   TEBEG  =    0.0;   TEEND  =   0.0 temperature during run
   SMASS  =  -3.00    Nose mass-parameter (am)
   estimated Nose-frequenzy (Omega)   =  0.10E-29 period in steps = 0.13E+47 mass=  -0.107E-26a.u.
   SCALEE = 1.0000    scale energy and forces
   NPACO  =    256;   APACO  = 10.0  distance and # of slots for P.C.
   PSTRESS=    0.0 pullay stress

  Mass of Ions in am
   POMASS =  14.00 12.01  1.00
  Ionic Valenz
   ZVAL   =   5.00  4.00  1.00
  Atomic Wigner-Seitz radii
   RWIGS  =  -1.00 -1.00 -1.00
  virtual crystal weights 
   VCA    =   1.00  1.00  1.00
   NELECT =     128.0000    total number of electrons
   NUPDOWN=      -1.0000    fix difference up-down

 DOS related values:
   EMIN   =  10.00;   EMAX   =-10.00  energy-range for DOS
   EFERMI =   0.00;   METHOD = LEGACY      
   ISMEAR =     0;   SIGMA  =   0.01  broadening in eV -4-tet -1-fermi 0-gaus

 Electronic relaxation 2 (details)
   IALGO  =     58    algorithm
   LDIAG  =      T    sub-space diagonalisation (order eigenvalues)
   LSUBROT=      F    optimize rotation matrix (better conditioning)
   TURBO    =      0    0=normal 1=particle mesh
   IRESTART =      0    0=no restart 2=restart with 2 vectors
   NREBOOT  =      0    no. of reboots
   NMIN     =      0    reboot dimension
   EREF     =   0.00    reference energy to select bands
   IMIX   =      4    mixing-type and parameters
     AMIX     =   0.40;   BMIX     =  1.00
     AMIX_MAG =   1.60;   BMIX_MAG =  1.00
     AMIN     =   0.10
     WC   =   100.;   INIMIX=   1;  MIXPRE=   1;  MAXMIX= -45

 Intra band minimization:
   WEIMIN = 0.0000     energy-eigenvalue tresh-hold
   EBREAK =  0.28E-09  absolut break condition
   DEPER  =   0.30     relativ break condition  

   TIME   =   0.40     timestep for ELM

  volume/ion in A,a.u.               =      10.39        70.12
  Fermi-wavevector in a.u.,A,eV,Ry     =   1.105522  2.089134 16.628761  1.222179
  Thomas-Fermi vector in A             =   2.242010

 Write flags
   LWAVE        =      F    write WAVECAR
   LDOWNSAMPLE  =      F    k-point downsampling of WAVECAR
   LCHARG       =      T    write CHGCAR
   LVTOT        =      F    write LOCPOT, total local potential
   LVHAR        =      F    write LOCPOT, Hartree potential only
   LELF         =      F    write electronic localiz. function (ELF)
   LORBIT       =      0    0 simple, 1 ext, 2 COOP (PROOUT), +10 PAW based schemes


 Dipole corrections
   LMONO  =      F    monopole corrections only (constant potential shift)
   LDIPOL =      F    correct potential (dipole corrections)
   IDIPOL =      0    1-x, 2-y, 3-z, 4-all directions 
   EPSILON=  1.0000000 bulk dielectric constant

 Exchange correlation treatment:
   GGA     =    --    GGA type
   LEXCH   =     8    internal setting for exchange type
   LIBXC   =     F    Libxc                    
   VOSKOWN =     0    Vosko Wilk Nusair interpolation
   LHFCALC =     F    Hartree Fock is set to
   LHFONE  =     F    Hartree Fock one center treatment
   AEXX    =    0.0000 exact exchange contribution

 Linear response parameters
   LEPSILON=     F    determine dielectric tensor
   LRPA    =     F    only Hartree local field effects (RPA)
   LNABLA  =     F    use nabla operator in PAW spheres
   LVEL    =     F    velocity operator in full k-point grid
   CSHIFT  =0.1000    complex shift for real part using Kramers Kronig
   OMEGAMAX=  -1.0    maximum frequency
   DEG_THRESHOLD= 0.2000000E-02 threshold for treating states as degnerate
   RTIME   =   -0.100 relaxation time in fs
  (WPLASMAI=    0.000 imaginary part of plasma frequency in eV, 0.658/RTIME)
   DFIELD  = 0.0000000 0.0000000 0.0000000 field for delta impulse in time

  Optional k-point grid parameters
   LKPOINTS_OPT  =     F    use optional k-point grid
   KPOINTS_OPT_MODE=     1    mode for optional k-point grid

 Orbital magnetization related:
   ORBITALMAG=     F  switch on orbital magnetization
   LCHIMAG   =     F  perturbation theory with respect to B field
   DQ        =  0.001000  dq finite difference perturbation B field
   LLRAUG    =     F  two centre corrections for induced B field
   LBONE     =     F  B-component reconstruction in AE one-centre
   LVGVCALC  =     T  calculate vGv susceptibility
   LVGVAPPL  =     F  apply vGv susceptibility instead of pGv for G=0

 Random number generation:
   RANDOM_GENERATOR = DEFAULT
   PCG_SEED         = not used


--------------------------------------------------------------------------------------------------------


 Static calculation
 charge density and potential will be updated during run
 non-spin polarized calculation
 Conjugate gradient for all bands (Freysoldt, et al. PRB 79, 241103 (2009))
 preconditioned conjugated gradient                                        
 perform sub-space diagonalisation
    before iterative eigenvector-optimisation
 modified Broyden-mixing scheme, WC =      100.0
 initial mixing is a Kerker type mixing with AMIX =  0.4000 and BMIX =      1.0000
 Hartree-type preconditioning will be used
 using additional bands           24
 reciprocal scheme for non local part
 use partial core corrections
 no Harris-corrections to forces 
 use gradient corrections 
 use of overlap-Matrix (Vanderbilt PP)
 Gauss-broadening in eV      SIGMA  =   0.01


--------------------------------------------------------------------------------------------------------


  energy-cutoff  :     1000.00
  volume of cell :      415.65
      direct lattice vectors                 reciprocal lattice vectors
     6.856000000  0.000000000  0.000000000     0.145857643  0.000000000  0.000000000
     0.000000000  6.628000000  0.000000000     0.000000000  0.150875075  0.000000000
     0.000000000  0.000000000  9.147000000     0.000000000  0.000000000  0.109325462

  length of vectors
     6.856000000  6.628000000  9.147000000     0.145857643  0.150875075  0.109325462



 k-points in units of 2pi/SCALE and weight: auto                                    
   0.00000000  0.00000000  0.00000000       0.021
   0.03646441  0.00000000  0.00000000       0.042
   0.07292882  0.00000000  0.00000000       0.021
   0.00000000  0.03771877  0.00000000       0.042
   0.03646441  0.03771877  0.00000000       0.042
  -0.03646441  0.03771877  0.00000000       0.042
   0.07292882  0.03771877  0.00000000       0.042
   0.00000000  0.07543754  0.00000000       0.021
   0.03646441  0.07543754  0.00000000       0.042
   0.07292882  0.07543754  0.00000000       0.021
   0.00000000  0.00000000  0.03644182       0.042
   0.03646441  0.00000000  0.03644182       0.042
   0.03646441  0.00000000 -0.03644182       0.042
   0.07292882  0.00000000  0.03644182       0.042
   0.00000000  0.03771877  0.03644182       0.042
   0.00000000  0.03771877 -0.03644182       0.042
   0.03646441  0.03771877  0.03644182       0.042
  -0.03646441  0.03771877 -0.03644182       0.042
   0.03646441 -0.03771877 -0.03644182       0.042
  -0.03646441 -0.03771877  0.03644182       0.042
   0.07292882  0.03771877  0.03644182       0.042
   0.07292882  0.03771877 -0.03644182       0.042
   0.00000000  0.07543754  0.03644182       0.042
   0.03646441  0.07543754  0.03644182       0.042
   0.03646441  0.07543754 -0.03644182       0.042
   0.07292882  0.07543754  0.03644182       0.042

 k-points in reciprocal lattice and weights: auto                                    
   0.00000000  0.00000000  0.00000000       0.021
   0.25000000  0.00000000  0.00000000       0.042
   0.50000000  0.00000000  0.00000000       0.021
   0.00000000  0.25000000  0.00000000       0.042
   0.25000000  0.25000000  0.00000000       0.042
  -0.25000000  0.25000000  0.00000000       0.042
   0.50000000  0.25000000  0.00000000       0.042
   0.00000000  0.50000000  0.00000000       0.021
   0.25000000  0.50000000  0.00000000       0.042
   0.50000000  0.50000000  0.00000000       0.021
   0.00000000  0.00000000  0.33333333       0.042
   0.25000000  0.00000000  0.33333333       0.042
   0.25000000  0.00000000 -0.33333333       0.042
   0.50000000  0.00000000  0.33333333       0.042
   0.00000000  0.25000000  0.33333333       0.042
   0.00000000  0.25000000 -0.33333333       0.042
   0.25000000  0.25000000  0.33333333       0.042
  -0.25000000  0.25000000 -0.33333333       0.042
   0.25000000 -0.25000000 -0.33333333       0.042
  -0.25000000 -0.25000000  0.33333333       0.042
   0.50000000  0.25000000  0.33333333       0.042
   0.50000000  0.25000000 -0.33333333       0.042
   0.00000000  0.50000000  0.33333333       0.042
   0.25000000  0.50000000  0.33333333       0.042
   0.25000000  0.50000000 -0.33333333       0.042
   0.50000000  0.50000000  0.33333333       0.042

 position of ions in fractional coordinates (direct lattice) 
   0.14393073  0.16614551  0.10831717
   0.85606958  0.83385984  0.89168256
   0.35607230  0.83386126  0.60831724
   0.64392858  0.16614430  0.39168302
   0.85607207  0.66614672  0.39168387
   0.14392803  0.33385793  0.60831630
   0.64392863  0.33385796  0.89168273
   0.35606930  0.66614684  0.10831891
   0.14646851  0.99719084  0.35025889
   0.85353103  0.00281481  0.64974096
   0.35353215  0.00280553  0.85025453
   0.64647169  0.99719447  0.14974771
   0.85353463  0.49718931  0.14974763
   0.14646476  0.50281593  0.85025231
   0.64646706  0.50280567  0.64973744
   0.35353645  0.49719285  0.35026408
   0.14452170  0.07433787  0.23477690
   0.85547827  0.92566776  0.76522315
   0.35547844  0.92566426  0.73477920
   0.64452367  0.07433846  0.26522218
   0.85547736  0.57433634  0.26521781
   0.14452233  0.42566865  0.73478216
   0.64451726  0.42566723  0.76521770
   0.35548101  0.57433612  0.23478460
   0.21026213  0.10116949  0.01864958
   0.78973743  0.89883445  0.98135044
   0.28974409  0.89883264  0.51865541
   0.71025528  0.10117465  0.48134621
   0.78974323  0.60117540  0.48135074
   0.21025623  0.39882956  0.51864926
   0.71025902  0.39883682  0.98135055
   0.28973979  0.60116867  0.01864945
   0.04604926  0.28240878  0.09450124
   0.95395092  0.71759630  0.90549817
   0.45394327  0.71760293  0.59449894
   0.54605594  0.28240173  0.40549968
   0.95395032  0.78240749  0.40550136
   0.04604908  0.21759783  0.59449868
   0.54604380  0.21759228  0.90549718
   0.45395617  0.78241159  0.09450302

 position of ions in cartesian coordinates  (Angst):
   0.98678911  1.10121243  0.99077714
   5.86921305  5.52682299  8.15622040
   2.44123171  5.52683243  5.56427784
   4.41477435  1.10120445  3.58272460
   5.86923013  4.41522049  3.58273232
   0.98677058  2.21281036  5.56426921
   4.41477470  2.21281058  8.15622196
   2.44121109  4.41522122  0.99079308
   1.00418807  6.60938087  3.20381811
   5.85180871  0.01865656  5.94318052
   2.42381641  0.01859504  7.77727817
   4.43220989  6.60940496  1.36974230
   5.85183345  3.29537075  1.36974155
   1.00416241  3.33266396  7.77725785
   4.43217819  3.33259595  5.94314838
   2.42384593  3.29539420  3.20386558
   0.99084076  0.49271138  2.14750428
   5.86515902  6.13532592  6.99949613
   2.43716021  6.13530272  6.72102533
   4.41885426  0.49271529  2.42598724
   5.86515277  3.80670123  2.42594728
   0.99084508  2.82133178  6.72105241
   4.41881034  2.82132239  6.99944631
   2.43717779  3.80669979  2.14757469
   1.44155719  0.67055139  0.17058773
   5.41443985  5.95747474  8.97641252
   1.98648545  5.95746271  4.74414103
   4.86951020  0.67058557  4.40287378
   5.41447961  3.98459053  4.40291523
   1.44151673  2.64344230  4.74408475
   4.86953587  2.64349042  8.97641347
   1.98645601  3.98454595  0.17058653
   0.31571373  1.87180537  0.86440283
   6.54028750  4.75622829  8.28259175
   3.11223508  4.75627221  5.43788177
   3.74375951  1.87175865  3.70910561
   6.54028342  5.18579686  3.70912097
   0.31571250  1.44223840  5.43787943
   3.74367631  1.44220161  8.28258266
   3.11232348  5.18582400  0.86441911



--------------------------------------------------------------------------------------------------------


 k-point   1 :   0.0000 0.0000 0.0000  plane waves:   29863
 k-point   2 :   0.2500 0.0000 0.0000  plane waves:   29873
 k-point   3 :   0.5000 0.0000 0.0000  plane waves:   29848
 k-point   4 :   0.0000 0.2500 0.0000  plane waves:   29860
 k-point   5 :   0.2500 0.2500 0.0000  plane waves:   29833
 k-point   6 :  -0.2500 0.2500 0.0000  plane waves:   29833
 k-point   7 :   0.5000 0.2500 0.0000  plane waves:   29838
 k-point   8 :   0.0000 0.5000 0.0000  plane waves:   29882
 k-point   9 :   0.2500 0.5000 0.0000  plane waves:   29838
 k-point  10 :   0.5000 0.5000 0.0000  plane waves:   29820
 k-point  11 :   0.0000 0.0000 0.3333  plane waves:   29861
 k-point  12 :   0.2500 0.0000 0.3333  plane waves:   29838
 k-point  13 :   0.2500 0.0000-0.3333  plane waves:   29838
 k-point  14 :   0.5000 0.0000 0.3333  plane waves:   29810
 k-point  15 :   0.0000 0.2500 0.3333  plane waves:   29825
 k-point  16 :   0.0000 0.2500-0.3333  plane waves:   29825
 k-point  17 :   0.2500 0.2500 0.3333  plane waves:   29837
 k-point  18 :  -0.2500 0.2500-0.3333  plane waves:   29837
 k-point  19 :   0.2500-0.2500-0.3333  plane waves:   29837
 k-point  20 :  -0.2500-0.2500 0.3333  plane waves:   29837
 k-point  21 :   0.5000 0.2500 0.3333  plane waves:   29848
 k-point  22 :   0.5000 0.2500-0.3333  plane waves:   29848
 k-point  23 :   0.0000 0.5000 0.3333  plane waves:   29840
 k-point  24 :   0.2500 0.5000 0.3333  plane waves:   29846
 k-point  25 :   0.2500 0.5000-0.3333  plane waves:   29846
 k-point  26 :   0.5000 0.5000 0.3333  plane waves:   29832

 maximum and minimum number of plane-waves per node :       963      904

 maximum number of plane-waves:     29882
 maximum index in each direction: 
   IXMAX=   17   IYMAX=   17   IZMAX=   23
   IXMIN=  -18   IYMIN=  -17   IZMIN=  -23


 parallel 3D FFT for wavefunctions:
    minimum data exchange during FFTs selected (reduces bandwidth)
 parallel 3D FFT for charge:
    minimum data exchange during FFTs selected (reduces bandwidth)


 total amount of memory used by VASP MPI-rank0    69014. kBytes
=======================================================================

   base      :      30000. kBytes
   nonl-proj :       5271. kBytes
   fftplans  :       2245. kBytes
   grid      :       5356. kBytes
   one-center:          6. kBytes
   wavefun   :      26136. kBytes

     INWAV:  cpu time      0.0002: real time      0.0003
 Broyden mixing: mesh for mixing (old mesh)
   NGX = 35   NGY = 35   NGZ = 47
  (NGX  =144   NGY  =140   NGZ  =192)
  gives a total of  57575 points

 initial charge density was supplied:
 charge density of overlapping atoms calculated
 number of electron     128.0000000 magnetization 
 keeping initial charge density in first step


--------------------------------------------------------------------------------------------------------


 Maximum index for augmentation-charges          417 (set IRDMAX)


--------------------------------------------------------------------------------------------------------


 First call to EWALD:  gamma=   0.238
 Maximum number of real-space cells 3x 3x 2
 Maximum number of reciprocal cells 3x 2x 3

    FEWALD:  cpu time      0.0029: real time      0.0029


--------------------------------------- Ionic step        1  -------------------------------------------




--------------------------------------- Iteration      1(   1)  ---------------------------------------


    POTLOK:  cpu time      0.1460: real time      0.1463
    SETDIJ:  cpu time      0.3197: real time      0.3201
    TRIAL :  cpu time      4.9315: real time      4.9350
    CORREC:  cpu time      0.0018: real time      0.0018
    --------------------------------------------
      LOOP:  cpu time      5.4184: real time      5.4226

 eigenvalue-minimisations  :  4576
 total energy-change (2. order) : 0.1060214E+04  (-0.9607394E+04)
 number of electron     128.0000000 magnetization 
 augmentation part      128.0000000 magnetization 

 Free energy of the ion-electron system (eV)
  ---------------------------------------------------
  alpha Z        PSCENC =       118.91601032
  Ewald energy   TEWEN  =     -3118.12717471
  -Hartree energ DENC   =     -1912.96877498
  -exchange      EXHF   =         0.00000000
  -V(xc)+E(xc)   XCENC  =       462.60158746
  PAW double counting   =      4143.54367442    -4134.68826283
  entropy T*S    EENTRO =        -0.00061006
  eigenvalues    EBANDS =      -108.73760586
  atomic energy  EATOM  =      5609.67562680
  ---------------------------------------------------
  free energy    TOTEN  =      1060.21447055 eV

  energy without entropy =     1060.21508061  energy(sigma->0) =     1060.21477558


--------------------------------------------------------------------------------------------------------




--------------------------------------- Iteration      1(   2)  ---------------------------------------


    TRIAL :  cpu time      5.6883: real time      5.6907
    CORREC:  cpu time      0.0004: real time      0.0004
    --------------------------------------------
      LOOP:  cpu time      5.7024: real time      5.7214

 eigenvalue-minimisations  :  6016
 total energy-change (2. order) :-0.1213247E+04  (-0.1157602E+04)
 number of electron     128.0000000 magnetization 
 augmentation part      128.0000000 magnetization 

 Free energy of the ion-electron system (eV)
  ---------------------------------------------------
  alpha Z        PSCENC =       118.91601032
  Ewald energy   TEWEN  =     -3118.12717471
  -Hartree energ DENC   =     -1912.96877498
  -exchange      EXHF   =         0.00000000
  -V(xc)+E(xc)   XCENC  =       462.60158746
  PAW double counting   =      4143.54367442    -4134.68826283
  entropy T*S    EENTRO =        -0.00000000
  eigenvalues    EBANDS =     -1321.98556324
  atomic energy  EATOM  =      5609.67562680
  ---------------------------------------------------
  free energy    TOTEN  =      -153.03287677 eV

  energy without entropy =     -153.03287677  energy(sigma->0) =     -153.03287677


--------------------------------------------------------------------------------------------------------




--------------------------------------- Iteration      1(   3)  ---------------------------------------


    TRIAL :  cpu time      5.4492: real time      5.4517
    CORREC:  cpu time      0.0003: real time      0.0003
    --------------------------------------------
      LOOP:  cpu time      5.4632: real time      5.4815

 eigenvalue-minimisations  :  5592
 total energy-change (2. order) :-0.1873426E+03  (-0.1852953E+03)
 number of electron     128.0000000 magnetization 
 augmentation part      128.0000000 magnetization 

 Free energy of the ion-electron system (eV)
  ---------------------------------------------------
  alpha Z        PSCENC =       118.91601032
  Ewald energy   TEWEN  =     -3118.12717471
  -Hartree energ DENC   =     -1912.96877498
  -exchange      EXHF   =         0.00000000
  -V(xc)+E(xc)   XCENC  =       462.60158746
  PAW double counting   =      4143.54367442    -4134.68826283
  entropy T*S    EENTRO =        -0.00000000
  eigenvalues    EBANDS =     -1509.32817003
  atomic energy  EATOM  =      5609.67562680
  ---------------------------------------------------
  free energy    TOTEN  =      -340.37548356 eV

  energy without entropy =     -340.37548356  energy(sigma->0) =     -340.37548356


--------------------------------------------------------------------------------------------------------




--------------------------------------- Iteration      1(   4)  ---------------------------------------


    TRIAL :  cpu time      5.4018: real time      5.4047
    CORREC:  cpu time      0.0004: real time      0.0004
    --------------------------------------------
      LOOP:  cpu time      5.4301: real time      5.4336

 eigenvalue-minimisations  :  5568
 total energy-change (2. order) :-0.7472794E+01  (-0.7400145E+01)
 number of electron     128.0000000 magnetization 
 augmentation part      128.0000000 magnetization 

 Free energy of the ion-electron system (eV)
  ---------------------------------------------------
  alpha Z        PSCENC =       118.91601032
  Ewald energy   TEWEN  =     -3118.12717471
  -Hartree energ DENC   =     -1912.96877498
  -exchange      EXHF   =         0.00000000
  -V(xc)+E(xc)   XCENC  =       462.60158746
  PAW double counting   =      4143.54367442    -4134.68826283
  entropy T*S    EENTRO =        -0.00000000
  eigenvalues    EBANDS =     -1516.80096439
  atomic energy  EATOM  =      5609.67562680
  ---------------------------------------------------
  free energy    TOTEN  =      -347.84827792 eV

  energy without entropy =     -347.84827792  energy(sigma->0) =     -347.84827792


--------------------------------------------------------------------------------------------------------




--------------------------------------- Iteration      1(   5)  ---------------------------------------


    TRIAL :  cpu time      5.4932: real time      5.4960
    CORREC:  cpu time      0.0003: real time      0.0003
    CHARGE:  cpu time      0.3346: real time      0.3356
    --------------------------------------------
      LOOP:  cpu time      5.8428: real time      5.8638

 eigenvalue-minimisations  :  5752
 total energy-change (2. order) :-0.3064467E+00  (-0.3058840E+00)
 number of electron     128.0000000 magnetization 
 augmentation part       -0.3907187 magnetization 

 Free energy of the ion-electron system (eV)
  ---------------------------------------------------
  alpha Z        PSCENC =       118.91601032
  Ewald energy   TEWEN  =     -3118.12717471
  -Hartree energ DENC   =     -1912.96877498
  -exchange      EXHF   =         0.00000000
  -V(xc)+E(xc)   XCENC  =       462.60158746
  PAW double counting   =      4143.54367442    -4134.68826283
  entropy T*S    EENTRO =        -0.00000000
  eigenvalues    EBANDS =     -1517.10741109
  atomic energy  EATOM  =      5609.67562680
  ---------------------------------------------------
  free energy    TOTEN  =      -348.15472461 eV

  energy without entropy =     -348.15472461  energy(sigma->0) =     -348.15472461


--------------------------------------------------------------------------------------------------------




--------------------------------------- Iteration      1(   6)  ---------------------------------------


    POTLOK:  cpu time      0.1276: real time      0.1276
    SETDIJ:  cpu time      0.3179: real time      0.3180
    TRIAL :  cpu time      3.8168: real time      3.8212
    CORREC:  cpu time      1.7178: real time      1.7190
    CHARGE:  cpu time      0.3212: real time      0.3212
    --------------------------------------------
      LOOP:  cpu time      6.3142: real time      6.3373

 eigenvalue-minimisations  :     0
 total energy-change (2. order) : 0.8618280E+02  (-0.2111525E+02)
 number of electron     128.0000000 magnetization 
 augmentation part       -0.5081769 magnetization 

 Free energy of the ion-electron system (eV)
  ---------------------------------------------------
  alpha Z        PSCENC =       118.91601032
  Ewald energy   TEWEN  =     -3118.12717471
  -Hartree energ DENC   =     -2561.42900737
  -exchange      EXHF   =         0.00000000
  -V(xc)+E(xc)   XCENC  =       525.75061251
  PAW double counting   =     47396.08818469   -47394.74986469
  entropy T*S    EENTRO =        -0.00000000
  eigenvalues    EBANDS =      -838.09631562
  atomic energy  EATOM  =      5609.67562680
  ---------------------------------------------------
  free energy    TOTEN  =      -261.97192808 eV

  energy without entropy =     -261.97192808  energy(sigma->0) =     -261.97192808


--------------------------------------------------------------------------------------------------------




--------------------------------------- Iteration      1(   7)  ---------------------------------------


    POTLOK:  cpu time      0.1273: real time      0.1273
    SETDIJ:  cpu time      0.3194: real time      0.3198
    TRIAL :  cpu time      3.8492: real time      3.8515
    CORREC:  cpu time      1.7278: real time      1.7289
    CHARGE:  cpu time      0.3208: real time      0.3208
    --------------------------------------------
      LOOP:  cpu time      6.3562: real time      6.3779

 eigenvalue-minimisations  :     0
 total energy-change (2. order) :-0.2113049E+02  (-0.2080161E+01)
 number of electron     128.0000000 magnetization 
 augmentation part       -0.5761432 magnetization 

 Free energy of the ion-electron system (eV)
  ---------------------------------------------------
  alpha Z        PSCENC =       118.91601032
  Ewald energy   TEWEN  =     -3118.12717471
  -Hartree energ DENC   =     -2261.71647073
  -exchange      EXHF   =         0.00000000
  -V(xc)+E(xc)   XCENC  =       499.21858153
  PAW double counting   =     64355.56396172   -64349.95764275
  entropy T*S    EENTRO =        -0.00000000
  eigenvalues    EBANDS =     -1136.67530940
  atomic energy  EATOM  =      5609.67562680
  ---------------------------------------------------
  free energy    TOTEN  =      -283.10241723 eV

  energy without entropy =     -283.10241723  energy(sigma->0) =     -283.10241723


--------------------------------------------------------------------------------------------------------




--------------------------------------- Iteration      1(   8)  ---------------------------------------


    POTLOK:  cpu time      0.1271: real time      0.1271
    SETDIJ:  cpu time      0.3171: real time      0.3171
    TRIAL :  cpu time      3.7772: real time      3.7792
    CORREC:  cpu time      1.7054: real time      1.7059
    CHARGE:  cpu time      0.3214: real time      0.3217
    --------------------------------------------
      LOOP:  cpu time      6.2755: real time      6.2801

 eigenvalue-minimisations  :     0
 total energy-change (2. order) :-0.2085549E+01  (-0.6165043E+00)
 number of electron     128.0000000 magnetization 
 augmentation part       -0.5565444 magnetization 

 Free energy of the ion-electron system (eV)
  ---------------------------------------------------
  alpha Z        PSCENC =       118.91601032
  Ewald energy   TEWEN  =     -3118.12717471
  -Hartree energ DENC   =     -2254.91815102
  -exchange      EXHF   =         0.00000000
  -V(xc)+E(xc)   XCENC  =       498.53511663
  PAW double counting   =     71926.66827685   -71920.50506166
  entropy T*S    EENTRO =        -0.00000000
  eigenvalues    EBANDS =     -1145.43260958
  atomic energy  EATOM  =      5609.67562680
  ---------------------------------------------------
  free energy    TOTEN  =      -285.18796637 eV

  energy without entropy =     -285.18796637  energy(sigma->0) =     -285.18796637


--------------------------------------------------------------------------------------------------------




--------------------------------------- Iteration      1(   9)  ---------------------------------------


    POTLOK:  cpu time      0.1268: real time      0.1268
    SETDIJ:  cpu time      0.3165: real time      0.3165
    TRIAL :  cpu time      3.7656: real time      3.7678
    CORREC:  cpu time      1.8083: real time      1.8092
    CHARGE:  cpu time      0.3283: real time      0.3283
    --------------------------------------------
      LOOP:  cpu time      6.3594: real time      6.3789

 eigenvalue-minimisations  :     0
 total energy-change (2. order) :-0.6152382E+00  (-0.1719964E+00)
 number of electron     128.0000000 magnetization 
 augmentation part       -0.5371817 magnetization 

 Free energy of the ion-electron system (eV)
  ---------------------------------------------------
  alpha Z        PSCENC =       118.91601032
  Ewald energy   TEWEN  =     -3118.12717471
  -Hartree energ DENC   =     -2252.55882172
  -exchange      EXHF   =         0.00000000
  -V(xc)+E(xc)   XCENC  =       498.45874123
  PAW double counting   =     75268.03897929   -75261.74796499
  entropy T*S    EENTRO =        -0.00000000
  eigenvalues    EBANDS =     -1148.45860082
  atomic energy  EATOM  =      5609.67562680
  ---------------------------------------------------
  free energy    TOTEN  =      -285.80320460 eV

  energy without entropy =     -285.80320460  energy(sigma->0) =     -285.80320460


--------------------------------------------------------------------------------------------------------




--------------------------------------- Iteration      1(  10)  ---------------------------------------


    POTLOK:  cpu time      0.1270: real time      0.1270
    SETDIJ:  cpu time      0.3157: real time      0.3162
    TRIAL :  cpu time      3.7657: real time      3.7674
    CORREC:  cpu time      1.7029: real time      1.7039
    CHARGE:  cpu time      0.3206: real time      0.3206
    --------------------------------------------
      LOOP:  cpu time      6.2609: real time      6.2641

 eigenvalue-minimisations  :     0
 total energy-change (2. order) :-0.1715388E+00  (-0.4664705E-01)
 number of electron     128.0000000 magnetization 
 augmentation part       -0.5319026 magnetization 

 Free energy of the ion-electron system (eV)
  ---------------------------------------------------
  alpha Z        PSCENC =       118.91601032
  Ewald energy   TEWEN  =     -3118.12717471
  -Hartree energ DENC   =     -2249.00192293
  -exchange      EXHF   =         0.00000000
  -V(xc)+E(xc)   XCENC  =       498.17694956
  PAW double counting   =     74985.40609845   -74979.13418441
  entropy T*S    EENTRO =        -0.00000000
  eigenvalues    EBANDS =     -1151.88614651
  atomic energy  EATOM  =      5609.67562680
  ---------------------------------------------------
  free energy    TOTEN  =      -285.97474343 eV

  energy without entropy =     -285.97474343  energy(sigma->0) =     -285.97474343


--------------------------------------------------------------------------------------------------------




--------------------------------------- Iteration      1(  11)  ---------------------------------------


    POTLOK:  cpu time      0.1275: real time      0.1279
    SETDIJ:  cpu time      0.3159: real time      0.3160
    TRIAL :  cpu time      3.7688: real time      3.7707
    CORREC:  cpu time      1.7044: real time      1.7049
    CHARGE:  cpu time      0.3218: real time      0.3222
    --------------------------------------------
      LOOP:  cpu time      6.2533: real time      6.2728

 eigenvalue-minimisations  :     0
 total energy-change (2. order) :-0.4650760E-01  (-0.1137004E-01)
 number of electron     128.0000000 magnetization 
 augmentation part       -0.5316528 magnetization 

 Free energy of the ion-electron system (eV)
  ---------------------------------------------------
  alpha Z        PSCENC =       118.91601032
  Ewald energy   TEWEN  =     -3118.12717471
  -Hartree energ DENC   =     -2248.44228107
  -exchange      EXHF   =         0.00000000
  -V(xc)+E(xc)   XCENC  =       498.12439032
  PAW double counting   =     74038.59776366   -74032.37157022
  entropy T*S    EENTRO =        -0.00000000
  eigenvalues    EBANDS =     -1152.39401612
  atomic energy  EATOM  =      5609.67562680
  ---------------------------------------------------
  free energy    TOTEN  =      -286.02125103 eV

  energy without entropy =     -286.02125103  energy(sigma->0) =     -286.02125103


--------------------------------------------------------------------------------------------------------




--------------------------------------- Iteration      1(  12)  ---------------------------------------


    POTLOK:  cpu time      0.1262: real time      0.1262
    SETDIJ:  cpu time      0.3176: real time      0.3176
    TRIAL :  cpu time      3.7767: real time      3.7787
    CORREC:  cpu time      1.7052: real time      1.7062
    CHARGE:  cpu time      0.3214: real time      0.3214
    --------------------------------------------
      LOOP:  cpu time      6.2599: real time      6.2803

 eigenvalue-minimisations  :     0
 total energy-change (2. order) :-0.1136406E-01  (-0.2655314E-02)
 number of electron     128.0000000 magnetization 
 augmentation part       -0.5327888 magnetization 

 Free energy of the ion-electron system (eV)
  ---------------------------------------------------
  alpha Z        PSCENC =       118.91601032
  Ewald energy   TEWEN  =     -3118.12717471
  -Hartree energ DENC   =     -2247.69563116
  -exchange      EXHF   =         0.00000000
  -V(xc)+E(xc)   XCENC  =       498.06637448
  PAW double counting   =     73684.04310485   -73677.82010620
  entropy T*S    EENTRO =        -0.00000000
  eigenvalues    EBANDS =     -1153.09081947
  atomic energy  EATOM  =      5609.67562680
  ---------------------------------------------------
  free energy    TOTEN  =      -286.03261509 eV

  energy without entropy =     -286.03261509  energy(sigma->0) =     -286.03261509


--------------------------------------------------------------------------------------------------------




--------------------------------------- Iteration      1(  13)  ---------------------------------------


    POTLOK:  cpu time      0.1270: real time      0.1270
    SETDIJ:  cpu time      0.3158: real time      0.3158
    TRIAL :  cpu time      3.7961: real time      3.7983
    CORREC:  cpu time      1.7068: real time      1.7078
    CHARGE:  cpu time      0.3217: real time      0.3217
    --------------------------------------------
      LOOP:  cpu time      6.2822: real time      6.3009

 eigenvalue-minimisations  :     0
 total energy-change (2. order) :-0.2659666E-02  (-0.5385875E-03)
 number of electron     128.0000000 magnetization 
 augmentation part       -0.5333893 magnetization 

 Free energy of the ion-electron system (eV)
  ---------------------------------------------------
  alpha Z        PSCENC =       118.91601032
  Ewald energy   TEWEN  =     -3118.12717471
  -Hartree energ DENC   =     -2247.47429555
  -exchange      EXHF   =         0.00000000
  -V(xc)+E(xc)   XCENC  =       498.04856641
  PAW double counting   =     73599.42506928   -73593.19663115
  entropy T*S    EENTRO =        -0.00000000
  eigenvalues    EBANDS =     -1153.30244614
  atomic energy  EATOM  =      5609.67562680
  ---------------------------------------------------
  free energy    TOTEN  =      -286.03527476 eV

  energy without entropy =     -286.03527476  energy(sigma->0) =     -286.03527476


--------------------------------------------------------------------------------------------------------




--------------------------------------- Iteration      1(  14)  ---------------------------------------


    POTLOK:  cpu time      0.1266: real time      0.1266
    SETDIJ:  cpu time      0.3175: real time      0.3179
    TRIAL :  cpu time      3.7681: real time      3.7701
    CORREC:  cpu time      1.7114: real time      1.7120
    CHARGE:  cpu time      0.3207: real time      0.3211
    --------------------------------------------
      LOOP:  cpu time      6.2559: real time      6.2771

 eigenvalue-minimisations  :     0
 total energy-change (2. order) :-0.5438034E-03  (-0.1181533E-03)
 number of electron     128.0000000 magnetization 
 augmentation part       -0.5335682 magnetization 

 Free energy of the ion-electron system (eV)
  ---------------------------------------------------
  alpha Z        PSCENC =       118.91601032
  Ewald energy   TEWEN  =     -3118.12717471
  -Hartree energ DENC   =     -2247.49185469
  -exchange      EXHF   =         0.00000000
  -V(xc)+E(xc)   XCENC  =       498.04567272
  PAW double counting   =     73553.31574473   -73547.08507114
  entropy T*S    EENTRO =        -0.00000000
  eigenvalues    EBANDS =     -1153.28477258
  atomic energy  EATOM  =      5609.67562680
  ---------------------------------------------------
  free energy    TOTEN  =      -286.03581856 eV

  energy without entropy =     -286.03581856  energy(sigma->0) =     -286.03581856


--------------------------------------------------------------------------------------------------------




--------------------------------------- Iteration      1(  15)  ---------------------------------------


    POTLOK:  cpu time      0.1262: real time      0.1262
    SETDIJ:  cpu time      0.3172: real time      0.3172
    TRIAL :  cpu time      3.7994: real time      3.8016
    CORREC:  cpu time      1.7027: real time      1.7036
    CHARGE:  cpu time      0.3214: real time      0.3215
    --------------------------------------------
      LOOP:  cpu time      6.2948: real time      6.2981

 eigenvalue-minimisations  :     0
 total energy-change (2. order) :-0.1192795E-03  (-0.2966054E-04)
 number of electron     128.0000000 magnetization 
 augmentation part       -0.5335840 magnetization 

 Free energy of the ion-electron system (eV)
  ---------------------------------------------------
  alpha Z        PSCENC =       118.91601032
  Ewald energy   TEWEN  =     -3118.12717471
  -Hartree energ DENC   =     -2247.49897858
  -exchange      EXHF   =         0.00000000
  -V(xc)+E(xc)   XCENC  =       498.04570257
  PAW double counting   =     73514.86238374   -73508.63229013
  entropy T*S    EENTRO =        -0.00000000
  eigenvalues    EBANDS =     -1153.27721785
  atomic energy  EATOM  =      5609.67562680
  ---------------------------------------------------
  free energy    TOTEN  =      -286.03593784 eV

  energy without entropy =     -286.03593784  energy(sigma->0) =     -286.03593784


--------------------------------------------------------------------------------------------------------




--------------------------------------- Iteration      1(  16)  ---------------------------------------


    POTLOK:  cpu time      0.1262: real time      0.1262
    SETDIJ:  cpu time      0.3259: real time      0.3260
    TRIAL :  cpu time      3.7654: real time      3.7679
    CORREC:  cpu time      1.7033: real time      1.7043
    CHARGE:  cpu time      0.3210: real time      0.3210
    --------------------------------------------
      LOOP:  cpu time      6.2540: real time      6.2751

 eigenvalue-minimisations  :     0
 total energy-change (2. order) :-0.2796657E-04  (-0.6497371E-05)
 number of electron     128.0000000 magnetization 
 augmentation part       -0.5335756 magnetization 

 Free energy of the ion-electron system (eV)
  ---------------------------------------------------
  alpha Z        PSCENC =       118.91601032
  Ewald energy   TEWEN  =     -3118.12717471
  -Hartree energ DENC   =     -2247.50174270
  -exchange      EXHF   =         0.00000000
  -V(xc)+E(xc)   XCENC  =       498.04471561
  PAW double counting   =     73496.73133550   -73490.50165845
  entropy T*S    EENTRO =        -0.00000000
  eigenvalues    EBANDS =     -1153.27307817
  atomic energy  EATOM  =      5609.67562680
  ---------------------------------------------------
  free energy    TOTEN  =      -286.03596580 eV

  energy without entropy =     -286.03596580  energy(sigma->0) =     -286.03596580


--------------------------------------------------------------------------------------------------------




--------------------------------------- Iteration      1(  17)  ---------------------------------------


    POTLOK:  cpu time      0.1264: real time      0.1264
    SETDIJ:  cpu time      0.3167: real time      0.3172
    TRIAL :  cpu time      3.7599: real time      3.7617
    CORREC:  cpu time      1.7042: real time      1.7053
    CHARGE:  cpu time      0.3208: real time      0.3208
    --------------------------------------------
      LOOP:  cpu time      6.2408: real time      6.2613

 eigenvalue-minimisations  :     0
 total energy-change (2. order) :-0.6265691E-05  (-0.1577946E-05)
 number of electron     128.0000000 magnetization 
 augmentation part       -0.5335729 magnetization 

 Free energy of the ion-electron system (eV)
  ---------------------------------------------------
  alpha Z        PSCENC =       118.91601032
  Ewald energy   TEWEN  =     -3118.12717471
  -Hartree energ DENC   =     -2247.52216204
  -exchange      EXHF   =         0.00000000
  -V(xc)+E(xc)   XCENC  =       498.04648917
  PAW double counting   =     73498.78534246   -73492.55604897
  entropy T*S    EENTRO =        -0.00000000
  eigenvalues    EBANDS =     -1153.25405509
  atomic energy  EATOM  =      5609.67562680
  ---------------------------------------------------
  free energy    TOTEN  =      -286.03597207 eV

  energy without entropy =     -286.03597207  energy(sigma->0) =     -286.03597207


--------------------------------------------------------------------------------------------------------




--------------------------------------- Iteration      1(  18)  ---------------------------------------


    POTLOK:  cpu time      0.1262: real time      0.1266
    SETDIJ:  cpu time      0.3162: real time      0.3162
    TRIAL :  cpu time      3.8007: real time      3.8029
    CORREC:  cpu time      1.7026: real time      1.7032
    CHARGE:  cpu time      0.3223: real time      0.3227
    --------------------------------------------
      LOOP:  cpu time      6.2983: real time      6.3021

 eigenvalue-minimisations  :     0
 total energy-change (2. order) :-0.1581007E-05  (-0.3947929E-06)
 number of electron     128.0000000 magnetization 
 augmentation part       -0.5335688 magnetization 

 Free energy of the ion-electron system (eV)
  ---------------------------------------------------
  alpha Z        PSCENC =       118.91601032
  Ewald energy   TEWEN  =     -3118.12717471
  -Hartree energ DENC   =     -2247.52183826
  -exchange      EXHF   =         0.00000000
  -V(xc)+E(xc)   XCENC  =       498.04636592
  PAW double counting   =     73505.69696312   -73499.46751013
  entropy T*S    EENTRO =        -0.00000000
  eigenvalues    EBANDS =     -1153.25441671
  atomic energy  EATOM  =      5609.67562680
  ---------------------------------------------------
  free energy    TOTEN  =      -286.03597365 eV

  energy without entropy =     -286.03597365  energy(sigma->0) =     -286.03597365


--------------------------------------------------------------------------------------------------------




--------------------------------------- Iteration      1(  19)  ---------------------------------------


    POTLOK:  cpu time      0.1264: real time      0.1264
    SETDIJ:  cpu time      0.3164: real time      0.3164
    TRIAL :  cpu time      3.7676: real time      3.7700
    CORREC:  cpu time      1.7044: real time      1.7052
    CHARGE:  cpu time      0.3223: real time      0.3223
    --------------------------------------------
      LOOP:  cpu time      6.2508: real time      6.2699

 eigenvalue-minimisations  :     0
 total energy-change (2. order) :-0.4093017E-06  (-0.1497825E-06)
 number of electron     128.0000000 magnetization 
 augmentation part       -0.5335631 magnetization 

 Free energy of the ion-electron system (eV)
  ---------------------------------------------------
  alpha Z        PSCENC =       118.91601032
  Ewald energy   TEWEN  =     -3118.12717471
  -Hartree energ DENC   =     -2247.52275602
  -exchange      EXHF   =         0.00000000
  -V(xc)+E(xc)   XCENC  =       498.04663030
  PAW double counting   =     73509.72988600   -73503.50042982
  entropy T*S    EENTRO =        -0.00000000
  eigenvalues    EBANDS =     -1153.25376693
  atomic energy  EATOM  =      5609.67562680
  ---------------------------------------------------
  free energy    TOTEN  =      -286.03597406 eV

  energy without entropy =     -286.03597406  energy(sigma->0) =     -286.03597406


--------------------------------------------------------------------------------------------------------




--------------------------------------- Iteration      1(  20)  ---------------------------------------


    POTLOK:  cpu time      0.1264: real time      0.1264
    SETDIJ:  cpu time      0.3164: real time      0.3164
    TRIAL :  cpu time      3.7663: real time      3.7684
    CORREC:  cpu time      1.7093: real time      1.7104
    CHARGE:  cpu time      0.3482: real time      0.3482
    --------------------------------------------
      LOOP:  cpu time      6.2960: real time      6.2995

 eigenvalue-minimisations  :     0
 total energy-change (2. order) :-0.1533335E-06  (-0.6245048E-07)
 number of electron     128.0000000 magnetization 
 augmentation part       -0.5335590 magnetization 

 Free energy of the ion-electron system (eV)
  ---------------------------------------------------
  alpha Z        PSCENC =       118.91601032
  Ewald energy   TEWEN  =     -3118.12717471
  -Hartree energ DENC   =     -2247.52426734
  -exchange      EXHF   =         0.00000000
  -V(xc)+E(xc)   XCENC  =       498.04687363
  PAW double counting   =     73511.92056629   -73505.69113918
  entropy T*S    EENTRO =        -0.00000000
  eigenvalues    EBANDS =     -1153.25247002
  atomic energy  EATOM  =      5609.67562680
  ---------------------------------------------------
  free energy    TOTEN  =      -286.03597421 eV

  energy without entropy =     -286.03597421  energy(sigma->0) =     -286.03597421


--------------------------------------------------------------------------------------------------------




--------------------------------------- Iteration      1(  21)  ---------------------------------------


    POTLOK:  cpu time      0.1273: real time      0.1273
    SETDIJ:  cpu time      0.3154: real time      0.3158
    TRIAL :  cpu time      3.7790: real time      3.7814
    CORREC:  cpu time      1.7068: real time      1.7074
    EDDIAG:  cpu time      0.9334: real time      0.9342
    CHARGE:  cpu time      0.3198: real time      0.3198
    --------------------------------------------
      LOOP:  cpu time      7.2120: real time      7.2164

 eigenvalue-minimisations  :     0
 total energy-change (2. order) :-0.5471520E-07  (-0.6435539E-08)
 number of electron     128.0000000 magnetization 
 augmentation part       -0.5335589 magnetization 

 Free energy of the ion-electron system (eV)
  ---------------------------------------------------
  alpha Z        PSCENC =       118.91601032
  Ewald energy   TEWEN  =     -3118.12717471
  -Hartree energ DENC   =     -2247.52356923
  -exchange      EXHF   =         0.00000000
  -V(xc)+E(xc)   XCENC  =       498.04682250
  PAW double counting   =     73512.99148944   -73506.76205103
  entropy T*S    EENTRO =        -0.00000000
  eigenvalues    EBANDS =     -1153.25312835
  atomic energy  EATOM  =      5609.67562680
  ---------------------------------------------------
  free energy    TOTEN  =      -286.03597427 eV

  energy without entropy =     -286.03597427  energy(sigma->0) =     -286.03597427


--------------------------------------------------------------------------------------------------------


  average scaling for gradient   0.8270


 average (electrostatic) potential at core
  the test charge radii are     0.5902  0.5770  0.4325
  (the norm of the test charge is              1.0000)
       1-102.3795       2-102.3791       3-102.3789       4-102.3793       5-102.3786
       6-102.3791       7-102.3793       8-102.3789       9-101.1062      10-101.1064
      11-101.1065      12-101.1063      13-101.1066      14-101.1064      15-101.1063
      16-101.1066      17 -85.5804      18 -85.5803      19 -85.5803      20 -85.5804
      21 -85.5802      22 -85.5803      23 -85.5803      24 -85.5803      25 -44.1256
      26 -44.1266      27 -44.1271      28 -44.1260      29 -44.1265      30 -44.1255
      31 -44.1254      32 -44.1264      33 -44.1756      34 -44.1795      35 -44.1800
      36 -44.1760      37 -44.1793      38 -44.1754      39 -44.1752      40 -44.1790



 E-fermi :  -1.2700     XC(G=0):  -8.6326     alpha+bet : -6.6399

 Fermi energy:        -1.2700321438

 k-point     1 :       0.0000    0.0000    0.0000
  band No.  band energies     occupation 
      1     -20.2942      2.00000
      2     -20.1169      2.00000
      3     -20.0139      2.00000
      4     -19.9852      2.00000
      5     -19.9667      2.00000
      6     -19.9601      2.00000
      7     -19.9424      2.00000
      8     -19.9076      2.00000
      9     -18.4008      2.00000
     10     -18.2826      2.00000
     11     -18.2211      2.00000
     12     -18.1865      2.00000
     13     -18.1555      2.00000
     14     -18.1481      2.00000
     15     -18.0427      2.00000
     16     -17.9939      2.00000
     17     -10.4819      2.00000
     18     -10.3201      2.00000
     19     -10.1497      2.00000
     20     -10.1086      2.00000
     21     -10.0930      2.00000
     22      -9.9661      2.00000
     23      -9.9653      2.00000
     24      -9.9561      2.00000
     25      -9.1195      2.00000
     26      -9.0980      2.00000
     27      -8.9609      2.00000
     28      -8.8631      2.00000
     29      -8.8498      2.00000
     30      -8.7981      2.00000
     31      -8.5656      2.00000
     32      -8.5291      2.00000
     33      -5.6857      2.00000
     34      -5.5683      2.00000
     35      -5.3576      2.00000
     36      -5.3318      2.00000
     37      -5.3306      2.00000
     38      -5.1931      2.00000
     39      -5.1624      2.00000
     40      -4.9855      2.00000
     41      -4.8295      2.00000
     42      -4.7761      2.00000
     43      -4.7746      2.00000
     44      -4.7358      2.00000
     45      -4.5582      2.00000
     46      -4.5515      2.00000
     47      -4.5144      2.00000
     48      -4.5052      2.00000
     49      -3.4983      2.00000
     50      -3.4908      2.00000
     51      -3.4630      2.00000
     52      -3.4608      2.00000
     53      -3.2250      2.00000
     54      -3.2046      2.00000
     55      -3.0928      2.00000
     56      -3.0603      2.00000
     57      -2.1774      2.00000
     58      -1.7986      2.00000
     59      -1.6880      2.00000
     60      -1.4690      2.00000
     61      -1.4148      2.00000
     62      -1.4118      2.00000
     63      -1.3885      2.00000
     64      -1.3343      2.00000
     65       4.0770      0.00000
     66       4.3918      0.00000
     67       4.4460      0.00000
     68       4.5709      0.00000
     69       4.7792      0.00000
     70       4.8092      0.00000
     71       5.1269      0.00000
     72       5.2282      0.00000
     73       5.2995      0.00000
     74       5.5269      0.00000
     75       5.5964      0.00000
     76       5.7730      0.00000
     77       5.8070      0.00000
     78       6.2754      0.00000
     79       6.3097      0.00000
     80       6.4731      0.00000
     81       6.5326      0.00000
     82       6.8192      0.00000
     83       7.5902      0.00000
     84       7.6747      0.00000
     85       7.7383      0.00000
     86       7.8789      0.00000
     87       8.2062      0.00000
     88       8.6527      0.00000

 k-point     2 :       0.2500    0.0000    0.0000
  band No.  band energies     occupation 
      1     -20.2639      2.00000
      2     -20.1002      2.00000
      3     -20.0830      2.00000
      4     -20.0101      2.00000
      5     -19.9602      2.00000
      6     -19.9399      2.00000
      7     -19.9250      2.00000
      8     -19.9052      2.00000
      9     -18.3866      2.00000
     10     -18.2803      2.00000
     11     -18.2728      2.00000
     12     -18.2031      2.00000
     13     -18.1339      2.00000
     14     -18.0966      2.00000
     15     -18.0530      2.00000
     16     -18.0077      2.00000
     17     -10.4533      2.00000
     18     -10.2984      2.00000
     19     -10.2580      2.00000
     20     -10.1492      2.00000
     21     -10.0234      2.00000
     22      -9.9645      2.00000
     23      -9.9493      2.00000
     24      -9.9439      2.00000
[...]
     50      -3.5674      2.00000
     51      -3.4283      2.00000
     52      -3.4279      2.00000
     53      -3.2705      2.00000
     54      -3.2700      2.00000
     55      -3.2160      2.00000
     56      -3.2158      2.00000
     57      -1.7984      2.00000
     58      -1.7983      2.00000
     59      -1.6246      2.00000
     60      -1.6244      2.00000
     61      -1.4692      2.00000
     62      -1.4691      2.00000
     63      -1.3701      2.00000
     64      -1.3699      2.00000
     65       4.4319      0.00000
     66       4.4321      0.00000
     67       4.6347      0.00000
     68       4.6348      0.00000
     69       4.9545      0.00000
     70       4.9548      0.00000
     71       5.0528      0.00000
     72       5.0528      0.00000
     73       5.6519      0.00000
     74       5.6520      0.00000
     75       5.8588      0.00000
     76       5.8588      0.00000
     77       6.2288      0.00000
     78       6.2290      0.00000
     79       6.3784      0.00000
     80       6.3784      0.00000
     81       6.6359      0.00000
     82       6.6360      0.00000
     83       6.8171      0.00000
     84       6.8173      0.00000
     85       7.4417      0.00000
     86       7.4420      0.00000
     87       7.8364      0.00000
     88       7.8454      0.00000

 k-point    25 :       0.2500    0.5000   -0.3333
  band No.  band energies     occupation 
      1     -20.0994      2.00000
      2     -20.0990      2.00000
      3     -20.0393      2.00000
      4     -20.0388      2.00000
      5     -20.0062      2.00000
      6     -20.0058      2.00000
      7     -19.9713      2.00000
      8     -19.9708      2.00000
      9     -18.2306      2.00000
     10     -18.2305      2.00000
     11     -18.2030      2.00000
     12     -18.2028      2.00000
     13     -18.1370      2.00000
     14     -18.1368      2.00000
     15     -18.1291      2.00000
     16     -18.1290      2.00000
     17     -10.2470      2.00000
     18     -10.2466      2.00000
     19     -10.1912      2.00000
     20     -10.1908      2.00000
     21     -10.0519      2.00000
     22     -10.0514      2.00000
     23     -10.0305      2.00000
     24     -10.0300      2.00000
     25      -8.9897      2.00000
     26      -8.9895      2.00000
     27      -8.9254      2.00000
     28      -8.9252      2.00000
     29      -8.7703      2.00000
     30      -8.7701      2.00000
     31      -8.7518      2.00000
     32      -8.7517      2.00000
     33      -5.4214      2.00000
     34      -5.4213      2.00000
     35      -5.3285      2.00000
     36      -5.3283      2.00000
     37      -5.0301      2.00000
     38      -5.0300      2.00000
     39      -4.9899      2.00000
     40      -4.9897      2.00000
     41      -4.9213      2.00000
     42      -4.9212      2.00000
     43      -4.8460      2.00000
     44      -4.8459      2.00000
     45      -4.6705      2.00000
     46      -4.6705      2.00000
     47      -4.5985      2.00000
     48      -4.5985      2.00000
     49      -3.5677      2.00000
     50      -3.5675      2.00000
     51      -3.4284      2.00000
     52      -3.4278      2.00000
     53      -3.2704      2.00000
     54      -3.2701      2.00000
     55      -3.2161      2.00000
     56      -3.2157      2.00000
     57      -1.7984      2.00000
     58      -1.7983      2.00000
     59      -1.6246      2.00000
     60      -1.6245      2.00000
     61      -1.4692      2.00000
     62      -1.4690      2.00000
     63      -1.3701      2.00000
     64      -1.3699      2.00000
     65       4.4319      0.00000
     66       4.4321      0.00000
     67       4.6346      0.00000
     68       4.6349      0.00000
     69       4.9546      0.00000
     70       4.9547      0.00000
     71       5.0527      0.00000
     72       5.0529      0.00000
     73       5.6519      0.00000
     74       5.6520      0.00000
     75       5.8587      0.00000
     76       5.8589      0.00000
     77       6.2288      0.00000
     78       6.2290      0.00000
     79       6.3783      0.00000
     80       6.3785      0.00000
     81       6.6358      0.00000
     82       6.6359      0.00000
     83       6.8171      0.00000
     84       6.8173      0.00000
     85       7.4410      0.00000
     86       7.4421      0.00000
     87       7.8349      0.00000
     88       7.8361      0.00000

 k-point    26 :       0.5000    0.5000    0.3333
  band No.  band energies     occupation 
      1     -20.0561      2.00000
      2     -20.0559      2.00000
      3     -20.0556      2.00000
      4     -20.0555      2.00000
      5     -20.0025      2.00000
      6     -20.0023      2.00000
      7     -20.0020      2.00000
      8     -20.0019      2.00000
      9     -18.2176      2.00000
     10     -18.2175      2.00000
     11     -18.2174      2.00000
     12     -18.2173      2.00000
     13     -18.1330      2.00000
     14     -18.1329      2.00000
     15     -18.1328      2.00000
     16     -18.1327      2.00000
     17     -10.2119      2.00000
     18     -10.2119      2.00000
     19     -10.2114      2.00000
     20     -10.2114      2.00000
     21     -10.0542      2.00000
     22     -10.0541      2.00000
     23     -10.0537      2.00000
     24     -10.0536      2.00000
     25      -8.8846      2.00000
     26      -8.8844      2.00000
     27      -8.8840      2.00000
     28      -8.8840      2.00000
     29      -8.8225      2.00000
     30      -8.8222      2.00000
     31      -8.8218      2.00000
     32      -8.8218      2.00000
     33      -5.2722      2.00000
     34      -5.2720      2.00000
     35      -5.2719      2.00000
     36      -5.2718      2.00000
     37      -5.1108      2.00000
     38      -5.1106      2.00000
     39      -5.1105      2.00000
     40      -5.1104      2.00000
     41      -4.8973      2.00000
     42      -4.8973      2.00000
     43      -4.8972      2.00000
     44      -4.8972      2.00000
     45      -4.6242      2.00000
     46      -4.6241      2.00000
     47      -4.6240      2.00000
     48      -4.6240      2.00000
     49      -3.4707      2.00000
     50      -3.4706      2.00000
     51      -3.4705      2.00000
     52      -3.4702      2.00000
     53      -3.3067      2.00000
     54      -3.3065      2.00000
     55      -3.3064      2.00000
     56      -3.3061      2.00000
     57      -1.6832      2.00000
     58      -1.6832      2.00000
     59      -1.6831      2.00000
     60      -1.6830      2.00000
     61      -1.4422      2.00000
     62      -1.4422      2.00000
     63      -1.4421      2.00000
     64      -1.4420      2.00000
     65       4.5198      0.00000
     66       4.5199      0.00000
     67       4.5200      0.00000
     68       4.5202      0.00000
     69       5.0155      0.00000
     70       5.0157      0.00000
     71       5.0158      0.00000
     72       5.0159      0.00000
     73       5.9211      0.00000
     74       5.9211      0.00000
     75       5.9212      0.00000
     76       5.9212      0.00000
     77       6.2613      0.00000
     78       6.2613      0.00000
     79       6.2615      0.00000
     80       6.2616      0.00000
     81       6.8965      0.00000
     82       6.8966      0.00000
     83       6.8967      0.00000
     84       6.8971      0.00000
     85       7.3721      0.00000
     86       7.3722      0.00000
     87       7.3724      0.00000
     88       7.3746      0.00000


--------------------------------------------------------------------------------------------------------


 soft charge-density along one line, spin component           1
         0         1         2         3         4         5         6         7         8         9
 total charge-density along one line

 pseudopotential strength for first ion, spin component:           1
 19.922  27.896  -0.017   0.018  -0.009  -0.025   0.027  -0.013
 27.896  39.065  -0.023   0.025  -0.012  -0.035   0.038  -0.019
 -0.017  -0.023  -5.875   0.002   0.000  -8.814   0.003   0.000
  0.018   0.025   0.002  -5.878  -0.000   0.003  -8.818  -0.000
 -0.009  -0.012   0.000  -0.000  -5.875   0.000  -0.000  -8.813
 -0.025  -0.035  -8.814   0.003   0.000 -13.201   0.005   0.000
  0.027   0.038   0.003  -8.818  -0.000   0.005 -13.207  -0.000
 -0.013  -0.019   0.000  -0.000  -8.813   0.000  -0.000 -13.199
 total augmentation occupancy for first ion, spin component:           1
 14.201  -6.924  -1.649   2.133  -0.713   0.856  -1.175   0.336
 -6.924   3.444   1.103  -1.458   0.456  -0.534   0.766  -0.190
 -1.649   1.103   8.012  -1.278  -2.013  -3.240   0.753   1.129
  2.133  -1.458  -1.278  10.457  -0.759   0.753  -4.648   0.424
 -0.713   0.456  -2.013  -0.759   6.627   1.129   0.424  -2.441
  0.856  -0.534  -3.240   0.753   1.129   1.351  -0.400  -0.553
 -1.175   0.766   0.753  -4.648   0.424  -0.400   2.083  -0.208
  0.336  -0.190   1.129   0.424  -2.441  -0.553  -0.208   0.944


------------------------ aborting loop because EDIFF is reached ----------------------------------------


    FORLOC:  cpu time      0.0097: real time      0.0097
    FORNL :  cpu time      0.8189: real time      0.8192
    FORCOR:  cpu time      0.4413: real time      0.4421
    OFIELD:  cpu time      0.0017: real time      0.0017

 VOLUME and BASIS-vectors are now :
 -----------------------------------------------------------------------------
  energy-cutoff  :     1000.00
  volume of cell :      415.65
      direct lattice vectors                 reciprocal lattice vectors
     6.856000000  0.000000000  0.000000000     0.145857643  0.000000000  0.000000000
     0.000000000  6.628000000  0.000000000     0.000000000  0.150875075  0.000000000
     0.000000000  0.000000000  9.147000000     0.000000000  0.000000000  0.109325462

  length of vectors
     6.856000000  6.628000000  9.147000000     0.145857643  0.150875075  0.109325462


 FORCES acting on ions:
    Electron-Ion                     Ewald-Force                    Non-Local-Force
 -----------------------------------------------------------------------------------------------
   -.534E+01 -.375E+02 0.828E+02   0.104E+02 0.470E+02 -.931E+02   -.506E+01 -.963E+01 0.105E+02
   0.534E+01 0.375E+02 -.828E+02   -.104E+02 -.470E+02 0.931E+02   0.506E+01 0.963E+01 -.105E+02
   0.534E+01 0.375E+02 0.828E+02   -.104E+02 -.469E+02 -.931E+02   0.506E+01 0.962E+01 0.105E+02
   -.533E+01 -.375E+02 -.828E+02   0.104E+02 0.470E+02 0.931E+02   -.506E+01 -.963E+01 -.105E+02
   0.534E+01 -.375E+02 -.828E+02   -.104E+02 0.469E+02 0.931E+02   0.506E+01 -.963E+01 -.105E+02
   -.533E+01 0.375E+02 0.828E+02   0.104E+02 -.469E+02 -.931E+02   -.506E+01 0.963E+01 0.105E+02
   -.533E+01 0.375E+02 -.828E+02   0.104E+02 -.470E+02 0.931E+02   -.506E+01 0.963E+01 -.105E+02
   0.534E+01 -.375E+02 0.828E+02   -.104E+02 0.470E+02 -.931E+02   0.506E+01 -.963E+01 0.105E+02
   -.331E+01 0.583E+02 -.143E+03   0.393E+01 -.731E+02 0.174E+03   -.624E+00 0.151E+02 -.320E+02
   0.332E+01 -.583E+02 0.143E+03   -.393E+01 0.731E+02 -.174E+03   0.623E+00 -.151E+02 0.320E+02
   0.332E+01 -.583E+02 -.143E+03   -.393E+01 0.731E+02 0.174E+03   0.623E+00 -.151E+02 -.320E+02
   -.331E+01 0.583E+02 0.143E+03   0.393E+01 -.731E+02 -.174E+03   -.625E+00 0.151E+02 0.320E+02
   0.331E+01 0.583E+02 0.143E+03   -.393E+01 -.731E+02 -.174E+03   0.622E+00 0.151E+02 0.320E+02
   -.331E+01 -.583E+02 -.143E+03   0.393E+01 0.731E+02 0.174E+03   -.623E+00 -.151E+02 -.320E+02
   -.332E+01 -.583E+02 0.143E+03   0.393E+01 0.731E+02 -.174E+03   -.625E+00 -.151E+02 0.320E+02
   0.332E+01 0.583E+02 -.143E+03   -.393E+01 -.731E+02 0.174E+03   0.623E+00 0.151E+02 -.320E+02
   0.311E+01 -.139E+02 0.382E+02   -.325E+01 0.943E+01 -.302E+02   0.149E+00 0.446E+01 -.795E+01
   -.311E+01 0.139E+02 -.382E+02   0.325E+01 -.943E+01 0.302E+02   -.153E+00 -.446E+01 0.795E+01
   -.310E+01 0.139E+02 0.382E+02   0.325E+01 -.944E+01 -.302E+02   -.153E+00 -.446E+01 -.796E+01
   0.311E+01 -.139E+02 -.382E+02   -.325E+01 0.944E+01 0.302E+02   0.148E+00 0.446E+01 0.796E+01
   -.310E+01 -.139E+02 -.382E+02   0.325E+01 0.946E+01 0.302E+02   -.153E+00 0.446E+01 0.796E+01
   0.310E+01 0.139E+02 0.382E+02   -.325E+01 -.946E+01 -.302E+02   0.149E+00 -.446E+01 -.796E+01
   0.312E+01 0.139E+02 -.382E+02   -.326E+01 -.944E+01 0.302E+02   0.148E+00 -.446E+01 0.796E+01
   -.311E+01 -.139E+02 0.382E+02   0.325E+01 0.944E+01 -.302E+02   -.153E+00 0.446E+01 -.796E+01
   -.207E+02 0.195E+02 0.435E+02   0.237E+02 -.223E+02 -.490E+02   -.318E+01 0.288E+01 0.574E+01
   0.207E+02 -.195E+02 -.435E+02   -.237E+02 0.223E+02 0.490E+02   0.317E+01 -.289E+01 -.574E+01
   0.207E+02 -.195E+02 0.435E+02   -.237E+02 0.223E+02 -.490E+02   0.318E+01 -.289E+01 0.574E+01
   -.207E+02 0.195E+02 -.435E+02   0.237E+02 -.223E+02 0.490E+02   -.318E+01 0.289E+01 -.574E+01
   0.207E+02 0.195E+02 -.435E+02   -.237E+02 -.223E+02 0.490E+02   0.317E+01 0.289E+01 -.574E+01
   -.207E+02 -.195E+02 0.435E+02   0.237E+02 0.223E+02 -.490E+02   -.318E+01 -.288E+01 0.574E+01
   -.207E+02 -.195E+02 -.435E+02   0.237E+02 0.223E+02 0.490E+02   -.318E+01 -.288E+01 -.574E+01
   0.207E+02 0.195E+02 0.435E+02   -.237E+02 -.223E+02 -.490E+02   0.317E+01 0.289E+01 0.574E+01
   0.342E+02 -.388E+02 0.152E+02   -.387E+02 0.440E+02 -.161E+02   0.467E+01 -.545E+01 0.939E+00
   -.342E+02 0.388E+02 -.152E+02   0.387E+02 -.440E+02 0.161E+02   -.466E+01 0.545E+01 -.939E+00
   -.342E+02 0.388E+02 0.152E+02   0.387E+02 -.440E+02 -.161E+02   -.466E+01 0.545E+01 0.939E+00
   0.342E+02 -.388E+02 -.152E+02   -.387E+02 0.440E+02 0.161E+02   0.467E+01 -.545E+01 -.939E+00
   -.342E+02 -.388E+02 -.152E+02   0.387E+02 0.440E+02 0.161E+02   -.466E+01 -.545E+01 -.939E+00
   0.342E+02 0.388E+02 0.152E+02   -.387E+02 -.440E+02 -.161E+02   0.467E+01 0.545E+01 0.939E+00
   0.342E+02 0.388E+02 -.152E+02   -.387E+02 -.440E+02 0.161E+02   0.466E+01 0.545E+01 -.939E+00
   -.342E+02 -.388E+02 0.152E+02   0.387E+02 0.440E+02 -.161E+02   -.466E+01 -.545E+01 0.939E+00
 -----------------------------------------------------------------------------------------------
   0.321E-01 -.141E-02 -.246E-03   -.213E-13 0.711E-13 -.128E-12   -.320E-01 0.143E-02 0.660E-04


 POSITION                                       TOTAL-FORCE (eV/Angst)
 -----------------------------------------------------------------------------------
      0.98679      1.10121      0.99078        -0.040109     -0.163879      0.207974
      5.86921      5.52682      8.15622         0.041674      0.162539     -0.206995
      2.44123      5.52683      5.56428         0.041088      0.163344      0.209050
      4.41477      1.10120      3.58272        -0.039537     -0.164664     -0.209924
      5.86923      4.41522      3.58273         0.041342     -0.163861     -0.210136
      0.98677      2.21281      5.56427        -0.039802      0.165171      0.211011
      4.41477      2.21281      8.15622        -0.040712      0.164278     -0.209689
      2.44121      4.41522      0.99079         0.042229     -0.163054      0.209013
      1.00419      6.60938      3.20382         0.006641      0.401681     -0.881364
      5.85181      0.01866      5.94318        -0.006324     -0.401658      0.881508
      2.42382      0.01860      7.77728        -0.006471     -0.398336     -0.874438
      4.43221      6.60940      1.36974         0.006767      0.398458      0.874421
      5.85183      3.29537      1.36974        -0.006652      0.397427      0.872021
      1.00416      3.33266      7.77726         0.006990     -0.397495     -0.872083
      4.43218      3.33260      5.94315         0.006555     -0.399878      0.878276
      2.42385      3.29539      3.20387        -0.006385      0.400310     -0.878957
      0.99084      0.49271      2.14750         0.004654     -0.145394      0.356650
      5.86516      6.13533      6.99950        -0.004983      0.145461     -0.357100
      2.43716      6.13530      6.72103        -0.004744      0.142297      0.350306
      4.41885      0.49272      2.42599         0.004461     -0.142354     -0.350104
      5.86515      3.80670      2.42595        -0.004454     -0.139971     -0.345191
      0.99085      2.82133      6.72105         0.004143      0.139950      0.344974
      4.41881      2.82132      6.99945         0.004863      0.142489     -0.351139
      2.43718      3.80670      2.14757        -0.004943     -0.142691      0.351407
      1.44156      0.67055      0.17059        -0.121487      0.099948      0.264042
      5.41444      5.95747      8.97641         0.121353     -0.100257     -0.264399
      1.98649      5.95746      4.74414         0.120256     -0.099249      0.262710
      4.86951      0.67059      4.40287        -0.120384      0.098912     -0.262359
      5.41448      3.98459      4.40292         0.120852      0.099683     -0.264032
      1.44152      2.64344      4.74408        -0.120977     -0.099379      0.263667
      4.86954      2.64349      8.97641        -0.121679     -0.100101     -0.264343
      1.98646      3.98455      0.17059         0.121593      0.100441      0.265024
      0.31571      1.87181      0.86440         0.192449     -0.234011      0.075828
      6.54029      4.75623      8.28259        -0.193874      0.235656     -0.076107
      3.11224      4.75627      5.43788        -0.192261      0.233827      0.075928
      3.74376      1.87176      3.70911         0.190851     -0.232178     -0.075633
      6.54028      5.18580      3.70912        -0.193259     -0.235068     -0.076361
      0.31571      1.44224      5.43788         0.191832      0.233420      0.076085
      3.74368      1.44220      8.28258         0.193112      0.234774     -0.075890
      3.11232      5.18582      0.86442        -0.194665     -0.236588      0.076349
 -----------------------------------------------------------------------------------
    total drift:                                0.000014      0.000015     -0.000180


--------------------------------------------------------------------------------------------------------



  FREE ENERGIE OF THE ION-ELECTRON SYSTEM (eV)
  ---------------------------------------------------
  free  energy   TOTEN  =      -286.03597427 eV

  energy  without entropy=     -286.03597427  energy(sigma->0) =     -286.03597427



--------------------------------------------------------------------------------------------------------


    POTLOK:  cpu time      0.4563: real time      0.4563


--------------------------------------------------------------------------------------------------------


 stress matrix after NEB project (eV)
      0.00000      0.00000      0.00000
      0.00000      0.00000      0.00000
      0.00000      0.00000      0.00000
  FORCES: max atom, RMS     0.968724    0.516905
  FORCE total and by dimension    3.269197    0.881508
  Stress total and by dimension    0.000000    0.000000
     LOOP+:  cpu time    137.0092: real time    137.3671
    4ORBIT:  cpu time      0.0000: real time      0.0000

 total amount of memory used by VASP MPI-rank0    69014. kBytes
=======================================================================

   base      :      30000. kBytes
   nonl-proj :       5271. kBytes
   fftplans  :       2245. kBytes
   grid      :       5356. kBytes
   one-center:          6. kBytes
   wavefun   :      26136. kBytes

  
  
 General timing and accounting informations for this job:
 ========================================================
  
                  Total CPU time used (sec):      154.870
                            User time (sec):      152.702
                          System time (sec):        2.167
                         Elapsed time (sec):      159.126
  
                   Maximum memory used (kb):      257468.
                   Average memory used (kb):          N/A
  
                          Minor page faults:        33035
                          Major page faults:          919
                 Voluntary context switches:         3088
