 vasp.6.4.1 05Apr23 (build Jun  6 2023 14:36:51) complex                         
 executed on        HPECrayEX_GCC date 2024.08.20  14:14:27
 running  256 mpi-ranks, with    1 threads/rank, on    2 nodes
 distrk:  each k-point on  256 cores,    1 groups
 distr:  one band on NCORE=   2 cores,  128 groups


--------------------------------------------------------------------------------------------------------


 INCAR:
   ALGO = Conjugate
   NCORE = 2
   PREC = Accurate
   EDIFF = 1E-7
   ENCUT = 1000
   ISMEAR = 0
   SIGMA = 0.01
   ISIF = 0
   SYMPREC = 1E-7
   GGA = RP
   IVDW = 11
   LWAVE = .FALSE.
   LCHARGE = .FALSE.
   LWAVE = .FALSE.
   LCHARGE = .FALSE.

 POTCAR:    PAW_PBE N_h 06Feb2004                 
 POTCAR:    PAW_PBE C_h 06Feb2004                 
 POTCAR:    PAW_PBE H_h 06Feb2004                 
 POTCAR:    PAW_PBE N_h 06Feb2004                 
   VRHFIN =N: s2p3                                                                                  
   LEXCH  = PE                                                                                      
   EATOM  =   264.5486 eV,   19.4438 Ry                                                             
                                                                                                    
   TITEL  = PAW_PBE N_h 06Feb2004                                                                   
   LULTRA =        F    use ultrasoft PP ?                                                          
   IUNSCR =        1    unscreen: 0-lin 1-nonlin 2-no                                               
   RPACOR =    0.800    partial core radius                                                         
   POMASS =   14.001; ZVAL   =    5.000    mass and valenz                                          
   RCORE  =    1.100    outmost cutoff radius                                                       
   RWIGS  =    1.480; RWIGS  =    0.783    wigner-seitz radius (au A)                               
   ENMAX  =  700.000; ENMIN  =  500.000 eV                                                          
   ICORE  =        2    local potential                                                             
   LCOR   =        T    correct aug charges                                                         
   LPAW   =        T    paw PP                                                                      
   EAUG   =  904.640                                                                                
   DEXC   =    0.000                                                                                
   RMAX   =    1.127    core radius for proj-oper                                                   
   RAUG   =    1.300    factor for augmentation sphere                                              
   RDEP   =    1.115    radius for radial grids                                                     
   RDEPT  =    1.106    core radius for aug-charge                                                  
                                                                                                    
   Atomic configuration                                                                             
    4 entries                                                                                       
     n  l   j            E        occ.                                                              
     1  0  0.50      -384.7179   2.0000                                                             
     2  0  0.50       -18.5828   2.0000                                                             
     2  1  0.50        -7.0898   3.0000                                                             
     3  2  1.50        -6.8029   0.0000                                                             
   Description                                                                                      
     l       E           TYP  RCUT    TYP  RCUT                                                     
     0    -18.5828117     23  1.100                                                                 
     0    -15.0750597     23  1.100                                                                 
     1     -7.0897851     23  1.100                                                                 
     1     -1.9663412     23  1.100                                                                 
     2     -6.8029130      7  1.100                                                                 
  local pseudopotential read in
  partial core-charges read in
  partial kinetic energy density read in
  kinetic energy density of atom read in
  atomic valenz-charges read in
  non local Contribution for L=           0  read in
    real space projection operators read in
  non local Contribution for L=           0  read in
    real space projection operators read in
  non local Contribution for L=           1  read in
    real space projection operators read in
  non local Contribution for L=           1  read in
    real space projection operators read in
    PAW grid and wavefunctions read in

   number of l-projection  operators is LMAX  =           4
   number of lm-projection operators is LMMAX =           8

 POTCAR:    PAW_PBE C_h 06Feb2004                 
   VRHFIN =C: s2p2                                                                                  
   LEXCH  = PE                                                                                      
   EATOM  =   147.1560 eV,   10.8157 Ry                                                             
                                                                                                    
   TITEL  = PAW_PBE C_h 06Feb2004                                                                   
   LULTRA =        F    use ultrasoft PP ?                                                          
   IUNSCR =        1    unscreen: 0-lin 1-nonlin 2-no                                               
   RPACOR =    0.800    partial core radius                                                         
   POMASS =   12.011; ZVAL   =    4.000    mass and valenz                                          
   RCORE  =    1.100    outmost cutoff radius                                                       
   RWIGS  =    1.630; RWIGS  =    0.863    wigner-seitz radius (au A)                               
   ENMAX  =  700.000; ENMIN  =  500.000 eV                                                          
   ICORE  =        2    local potential                                                             
   LCOR   =        T    correct aug charges                                                         
   LPAW   =        T    paw PP                                                                      
   EAUG   =  946.768                                                                                
   DEXC   =    0.000                                                                                
   RMAX   =    1.128    core radius for proj-oper                                                   
   RAUG   =    1.300    factor for augmentation sphere                                              
   RDEP   =    1.162    radius for radial grids                                                     
   RDEPT  =    1.088    core radius for aug-charge                                                  
                                                                                                    
   Atomic configuration                                                                             
    4 entries                                                                                       
     n  l   j            E        occ.                                                              
     1  0  0.50      -273.3789   2.0000                                                             
     2  0  0.50       -13.7508   2.0000                                                             
     2  1  0.50        -5.2854   2.0000                                                             
     3  2  1.50        -5.4423   0.0000                                                             
   Description                                                                                      
     l       E           TYP  RCUT    TYP  RCUT                                                     
     0    -13.7508458     23  1.100                                                                 
     0     -8.2022199     23  1.100                                                                 
     1     -5.2854383     23  1.100                                                                 
     1      1.1560700     23  1.100                                                                 
     2     -5.4423304      7  1.100                                                                 
  local pseudopotential read in
  partial core-charges read in
  partial kinetic energy density read in
  atomic valenz-charges read in
  non local Contribution for L=           0  read in
    real space projection operators read in
  non local Contribution for L=           0  read in
    real space projection operators read in
  non local Contribution for L=           1  read in
    real space projection operators read in
  non local Contribution for L=           1  read in
    real space projection operators read in
    PAW grid and wavefunctions read in

   number of l-projection  operators is LMAX  =           4
   number of lm-projection operators is LMMAX =           8

 POTCAR:    PAW_PBE H_h 06Feb2004                 
   VRHFIN =H: ultrasoft test                                                                        
   LEXCH  = PE                                                                                      
   EATOM  =    12.4884 eV,    0.9179 Ry                                                             
                                                                                                    
   TITEL  = PAW_PBE H_h 06Feb2004                                                                   
   LULTRA =        F    use ultrasoft PP ?                                                          
   IUNSCR =        0    unscreen: 0-lin 1-nonlin 2-no                                               
   RPACOR =    0.000    partial core radius                                                         
   POMASS =    1.000; ZVAL   =    1.000    mass and valenz                                          
   RCORE  =    0.800    outmost cutoff radius                                                       
   RWIGS  =    0.700; RWIGS  =    0.370    wigner-seitz radius (au A)                               
   ENMAX  =  700.000; ENMIN  =  350.000 eV                                                          
   RCLOC  =    0.701    cutoff for local pot                                                        
   LCOR   =        T    correct aug charges                                                         
   LPAW   =        T    paw PP                                                                      
   EAUG   = 1000.000                                                                                
   RMAX   =    0.819    core radius for proj-oper                                                   
   RAUG   =    1.000    factor for augmentation sphere                                              
   RDEP   =    0.817    radius for radial grids                                                     
   RDEPT  =    0.817    core radius for aug-charge                                                  
                                                                                                    
   Atomic configuration                                                                             
    2 entries                                                                                       
     n  l   j            E        occ.                                                              
     1  0  0.50        -6.4927   1.0000                                                             
     2  1  0.50        -3.4015   0.0000                                                             
   Description                                                                                      
     l       E           TYP  RCUT    TYP  RCUT                                                     
     0     -6.4927493     23  0.800                                                                 
     0      6.8029130     23  0.800                                                                 
     1     -6.8029130     23  0.800                                                                 
  local pseudopotential read in
  atomic valenz-charges read in
  non local Contribution for L=           0  read in
    real space projection operators read in
  non local Contribution for L=           0  read in
    real space projection operators read in
  non local Contribution for L=           1  read in
    real space projection operators read in
    PAW grid and wavefunctions read in

   number of l-projection  operators is LMAX  =           3
   number of lm-projection operators is LMMAX =           5

 -----------------------------------------------------------------------------
|                                                                             |
|               ----> ADVICE to this user running VASP <----                  |
|                                                                             |
|     You have a (more or less) 'large supercell' and for larger cells it     |
|     might be more efficient to use real-space projection operators.         |
|     Therefore, try LREAL= Auto in the INCAR file.                           |
|     Mind: For very accurate calculation, you might also keep the            |
|     reciprocal projection scheme (i.e. LREAL=.FALSE.).                      |
|                                                                             |
 -----------------------------------------------------------------------------

 -----------------------------------------------------------------------------
|                                                                             |
|               ----> ADVICE to this user running VASP <----                  |
|                                                                             |
|     You enforced a specific xc type in the INCAR file but a different       |
|     type was found in the POTCAR file.                                      |
|     I HOPE YOU KNOW WHAT YOU ARE DOING!                                     |
|                                                                             |
 -----------------------------------------------------------------------------

  PAW_PBE N_h 06Feb2004                 :
 energy of atom  1       EATOM= -264.5486
 kinetic energy error for atom=    0.0081 (will be added to EATOM!!)
  PAW_PBE C_h 06Feb2004                 :
 energy of atom  2       EATOM= -147.1560
 kinetic energy error for atom=    0.0031 (will be added to EATOM!!)
  PAW_PBE H_h 06Feb2004                 :
 energy of atom  3       EATOM=  -12.4884
 kinetic energy error for atom=    0.0006 (will be added to EATOM!!)


 POSCAR:  N  C  H
  positions in cartesian coordinates
  No initial velocities read in
 exchange correlation table for  LEXCH =        9
   RHO(1)=    0.500       N(1)  =     2000
   RHO(2)=  100.500       N(2)  =     4000

 VTST: version 4.1, (05/19/21)

 CHAIN: initializing optimizer
 
 OPT: Using VASP Dynamics algorithm
 CHAIN: Read ICHAIN            0

 POSCAR:  N  C  H
  positions in cartesian coordinates
  No initial velocities read in



--------------------------------------------------------------------------------------------------------


 ion  position               nearest neighbor table
   1  0.144  0.166  0.108-  33 1.03  25 1.03  17 1.31
   2  0.856  0.834  0.892-  34 1.03  26 1.03  18 1.31
   3  0.356  0.834  0.608-  35 1.03  27 1.03  19 1.31
   4  0.644  0.166  0.392-  36 1.03  28 1.03  20 1.31
   5  0.856  0.666  0.392-  37 1.03  29 1.03  21 1.31
   6  0.144  0.334  0.608-  38 1.03  30 1.03  22 1.31
   7  0.644  0.334  0.892-  39 1.03  31 1.03  23 1.31
   8  0.356  0.666  0.108-  40 1.03  32 1.03  24 1.31
   9  0.146  0.997  0.350-  17 1.17
  10  0.854  0.003  0.650-  18 1.17
  11  0.354  0.003  0.850-  19 1.17
  12  0.646  0.997  0.150-  20 1.17
  13  0.854  0.497  0.150-  21 1.17
  14  0.146  0.503  0.850-  22 1.17
  15  0.646  0.503  0.650-  23 1.17
  16  0.354  0.497  0.350-  24 1.17
  17  0.145  0.074  0.235-   9 1.17   1 1.31
  18  0.855  0.926  0.765-  10 1.17   2 1.31
  19  0.355  0.926  0.735-  11 1.17   3 1.31
  20  0.645  0.074  0.265-  12 1.17   4 1.31
  21  0.855  0.574  0.265-  13 1.17   5 1.31
  22  0.145  0.426  0.735-  14 1.17   6 1.31
  23  0.645  0.426  0.765-  15 1.17   7 1.31
  24  0.355  0.574  0.235-  16 1.17   8 1.31
  25  0.210  0.101  0.019-   1 1.03
  26  0.790  0.899  0.981-   2 1.03
  27  0.290  0.899  0.519-   3 1.03
  28  0.710  0.101  0.481-   4 1.03
  29  0.790  0.601  0.481-   5 1.03
  30  0.210  0.399  0.519-   6 1.03
  31  0.710  0.399  0.981-   7 1.03
  32  0.290  0.601  0.019-   8 1.03
  33  0.046  0.282  0.095-   1 1.03
  34  0.954  0.718  0.905-   2 1.03
  35  0.454  0.718  0.594-   3 1.03
  36  0.546  0.282  0.405-   4 1.03
  37  0.954  0.782  0.406-   5 1.03
  38  0.046  0.218  0.594-   6 1.03
  39  0.546  0.218  0.905-   7 1.03
  40  0.454  0.782  0.095-   8 1.03

  LATTYP: Found a simple orthorhombic cell.
 ALAT       =     6.6280000000
 B/A-ratio  =     1.0343995172
 C/A-ratio  =     1.3800543150
  
  Lattice vectors:
  
 A1 = (   0.0000000000,  -6.6280000000,   0.0000000000)
 A2 = (   6.8560000000,   0.0000000000,   0.0000000000)
 A3 = (   0.0000000000,   0.0000000000,   9.1470000000)


Analysis of symmetry for initial positions (statically):
=====================================================================
 Subroutine PRICEL returns:
 Original cell was already a primitive cell.
 

 Routine SETGRP: Setting up the symmetry group for a 
 simple orthorhombic supercell.


 Subroutine GETGRP returns: Found  1 space group operations
 (whereof  1 operations were pure point group operations)
 out of a pool of  8 trial point group operations.


The static configuration has the point symmetry C_1 .


Analysis of symmetry for dynamics (positions and initial velocities):
=====================================================================
 Subroutine PRICEL returns:
 Original cell was already a primitive cell.
 

 Routine SETGRP: Setting up the symmetry group for a 
 simple orthorhombic supercell.


 Subroutine GETGRP returns: Found  1 space group operations
 (whereof  1 operations were pure point group operations)
 out of a pool of  8 trial point group operations.


The dynamic configuration has the point symmetry C_1 .


 Subroutine INISYM returns: Found  1 space group operations
 (whereof  1 operations are pure point group operations),
 and found     1 'primitive' translations


----------------------------------------------------------------------------------------

                                     Primitive cell                                     

  volume of cell :     415.6540

  direct lattice vectors                    reciprocal lattice vectors
     6.856000000  0.000000000  0.000000000     0.145857643  0.000000000  0.000000000
     0.000000000  6.628000000  0.000000000     0.000000000  0.150875075  0.000000000
     0.000000000  0.000000000  9.147000000     0.000000000  0.000000000  0.109325462

  length of vectors
     6.856000000  6.628000000  9.147000000     0.145857643  0.150875075  0.109325462

  position of ions in fractional coordinates (direct lattice)
     0.143930733  0.166145508  0.108317168
     0.856069582  0.833859835  0.891682563
     0.356072303  0.833861260  0.608317245
     0.643928580  0.166144304  0.391683022
     0.856072073  0.666146724  0.391683865
     0.143928031  0.333857930  0.608316301
     0.643928632  0.333857963  0.891682734
     0.356069295  0.666146835  0.108318911
     0.146468505  0.997190838  0.350258895
     0.853531025  0.002814810  0.649740955
     0.353532148  0.002805528  0.850254528
     0.646471688  0.997194472  0.149747710
     0.853534634  0.497189310  0.149747627
     0.146464762  0.502815926  0.850252307
     0.646467064  0.502805666  0.649737442
     0.353536455  0.497192848  0.350264085
     0.144521698  0.074337867  0.234776897
     0.855478271  0.925667762  0.765223147
     0.355478444  0.925664261  0.734779199
     0.644523667  0.074338457  0.265222176
     0.855477358  0.574336336  0.265217807
     0.144522328  0.425668646  0.734782160
     0.644517261  0.425667228  0.765217701
     0.355481008  0.574336118  0.234784595
     0.210262133  0.101169491  0.018649582
     0.789737434  0.898834450  0.981350445
     0.289744085  0.898832635  0.518655410
     0.710255280  0.101174648  0.481346209
     0.789743234  0.601175397  0.481350742
     0.210256233  0.398829556  0.518649257
     0.710259024  0.398836817  0.981350549
     0.289739792  0.601168672  0.018649451
     0.046049261  0.282408777  0.094501239
     0.953950919  0.717596302  0.905498169
     0.453943273  0.717602929  0.594498936
     0.546055938  0.282401728  0.405499684
     0.953950324  0.782407493  0.405501363
     0.046049081  0.217597828  0.594498680
     0.546043803  0.217592277  0.905497175
     0.453956166  0.782411587  0.094503019

  ion indices of the primitive-cell ions
   primitive index   ion index
                 1           1
                 2           2
                 3           3
                 4           4
                 5           5
                 6           6
                 7           7
                 8           8
                 9           9
                10          10
                11          11
                12          12
                13          13
                14          14
                15          15
                16          16
                17          17
                18          18
                19          19
                20          20
                21          21
                22          22
                23          23
                24          24
                25          25
                26          26
                27          27
                28          28
                29          29
                30          30
                31          31
                32          32
                33          33
                34          34
                35          35
                36          36
                37          37
                38          38
                39          39
                40          40

----------------------------------------------------------------------------------------



 KPOINTS: auto                                    

Automatic generation of k-mesh.
 Grid dimensions read from file:
 generate k-points for:    4    4    3

 Generating k-lattice:

  Cartesian coordinates                     Fractional coordinates (reciprocal lattice)
     0.036464411  0.000000000  0.000000000     0.250000000  0.000000000  0.000000000
     0.000000000  0.037718769  0.000000000     0.000000000  0.250000000  0.000000000
     0.000000000  0.000000000  0.036441821     0.000000000  0.000000000  0.333333333

  Length of vectors
     0.036464411  0.037718769  0.036441821

  Shift w.r.t. Gamma in fractional coordinates (k-lattice)
     0.000000000  0.000000000  0.000000000

 
 Subroutine IBZKPT returns following result:
 ===========================================
 
 Found     26 irreducible k-points:
 
 Following reciprocal coordinates:
            Coordinates               Weight
  0.000000  0.000000  0.000000      1.000000
  0.250000  0.000000  0.000000      2.000000
  0.500000  0.000000  0.000000      1.000000
  0.000000  0.250000  0.000000      2.000000
  0.250000  0.250000  0.000000      2.000000
 -0.250000  0.250000  0.000000      2.000000
  0.500000  0.250000  0.000000      2.000000
  0.000000  0.500000  0.000000      1.000000
  0.250000  0.500000  0.000000      2.000000
  0.500000  0.500000  0.000000      1.000000
  0.000000  0.000000  0.333333      2.000000
  0.250000  0.000000  0.333333      2.000000
  0.250000  0.000000 -0.333333      2.000000
  0.500000  0.000000  0.333333      2.000000
  0.000000  0.250000  0.333333      2.000000
  0.000000  0.250000 -0.333333      2.000000
  0.250000  0.250000  0.333333      2.000000
 -0.250000  0.250000 -0.333333      2.000000
  0.250000 -0.250000 -0.333333      2.000000
 -0.250000 -0.250000  0.333333      2.000000
  0.500000  0.250000  0.333333      2.000000
  0.500000  0.250000 -0.333333      2.000000
  0.000000  0.500000  0.333333      2.000000
  0.250000  0.500000  0.333333      2.000000
  0.250000  0.500000 -0.333333      2.000000
  0.500000  0.500000  0.333333      2.000000
 
 Following cartesian coordinates:
            Coordinates               Weight
  0.000000  0.000000  0.000000      1.000000
  0.036464  0.000000  0.000000      2.000000
  0.072929  0.000000  0.000000      1.000000
  0.000000  0.037719  0.000000      2.000000
  0.036464  0.037719  0.000000      2.000000
 -0.036464  0.037719  0.000000      2.000000
  0.072929  0.037719  0.000000      2.000000
  0.000000  0.075438  0.000000      1.000000
  0.036464  0.075438  0.000000      2.000000
  0.072929  0.075438  0.000000      1.000000
  0.000000  0.000000  0.036442      2.000000
  0.036464  0.000000  0.036442      2.000000
  0.036464  0.000000 -0.036442      2.000000
  0.072929  0.000000  0.036442      2.000000
  0.000000  0.037719  0.036442      2.000000
  0.000000  0.037719 -0.036442      2.000000
  0.036464  0.037719  0.036442      2.000000
 -0.036464  0.037719 -0.036442      2.000000
  0.036464 -0.037719 -0.036442      2.000000
 -0.036464 -0.037719  0.036442      2.000000
  0.072929  0.037719  0.036442      2.000000
  0.072929  0.037719 -0.036442      2.000000
  0.000000  0.075438  0.036442      2.000000
  0.036464  0.075438  0.036442      2.000000
  0.036464  0.075438 -0.036442      2.000000
  0.072929  0.075438  0.036442      2.000000
 


--------------------------------------------------------------------------------------------------------




 Dimension of arrays:
   k-points           NKPTS =     26   k-points in BZ     NKDIM =     26   number of bands    NBANDS=    128
   number of dos      NEDOS =    301   number of ions     NIONS =     40
   non local maximal  LDIM  =      4   non local SUM 2l+1 LMDIM =      8
   total plane-waves  NPLWV = 483840
   max r-space proj   IRMAX =      1   max aug-charges    IRDMAX=   8466
   dimension x,y,z NGX =    72 NGY =   70 NGZ =   96
   dimension x,y,z NGXF=   144 NGYF=  140 NGZF=  192
   support grid    NGXF=   144 NGYF=  140 NGZF=  192
   ions per type =              16   8  16
   NGX,Y,Z   is equivalent  to a cutoff of  17.46, 17.56, 17.45 a.u.
   NGXF,Y,Z  is equivalent  to a cutoff of  34.92, 35.12, 34.90 a.u.

 SYSTEM =  unknown system                          
 POSCAR =   N  C  H                                

 Startparameter for this run:
   NWRITE =      2    write-flag & timer
   PREC   = accura    normal or accurate (medium, high low for compatibility)
   ISTART =      0    job   : 0-new  1-cont  2-samecut
   ICHARG =      2    charge: 1-file 2-atom 10-const
   ISPIN  =      1    spin polarized calculation?
   LNONCOLLINEAR =      F non collinear calculations
   LSORBIT =      F    spin-orbit coupling
   INIWAV =      1    electr: 0-lowe 1-rand  2-diag
   LASPH  =      F    aspherical Exc in radial PAW
 Electronic Relaxation 1
   ENCUT  = 1000.0 eV  73.50 Ry    8.57 a.u.  17.68 17.09 23.58*2*pi/ulx,y,z
   ENINI  = 1000.0     initial cutoff
   ENAUG  = 1000.0 eV  augmentation charge cutoff
   NELM   =     60;   NELMIN=  2; NELMDL= -5     # of ELM steps 
   EDIFF  = 0.1E-06   stopping-criterion for ELM
   LREAL  =      F    real-space projection
   NLSPLINE    = F    spline interpolate recip. space projectors
   LCOMPAT=      F    compatible to vasp.4.4
   GGA_COMPAT  = T    GGA compatible to vasp.4.4-vasp.4.6
   LMAXPAW     = -100 max onsite density
   LMAXMIX     =    2 max onsite mixed and CHGCAR
   VOSKOWN=      0    Vosko Wilk Nusair interpolation
   ROPT   =    0.00000   0.00000   0.00000
 Ionic relaxation
   EDIFFG = 0.1E-05   stopping-criterion for IOM
   NSW    =      0    number of steps for IOM
   NBLOCK =      1;   KBLOCK =      1    inner block; outer block 
   IBRION =     -1    ionic relax: 0-MD 1-quasi-New 2-CG
   NFREE  =      0    steps in history (QN), initial steepest desc. (CG)
   ISIF   =      0    stress and relaxation
   IWAVPR =     10    prediction:  0-non 1-charg 2-wave 3-comb
   ISYM   =      2    0-nonsym 1-usesym 2-fastsym
   LCORR  =      T    Harris-Foulkes like correction to forces

   POTIM  = 0.5000    time-step for ionic-motion
   TEIN   =    0.0    initial temperature
   TEBEG  =    0.0;   TEEND  =   0.0 temperature during run
   SMASS  =  -3.00    Nose mass-parameter (am)
   estimated Nose-frequenzy (Omega)   =  0.10E-29 period in steps = 0.13E+47 mass=  -0.107E-26a.u.
   SCALEE = 1.0000    scale energy and forces
   NPACO  =    256;   APACO  = 10.0  distance and # of slots for P.C.
   PSTRESS=    0.0 pullay stress

  Mass of Ions in am
   POMASS =  14.00 12.01  1.00
  Ionic Valenz
   ZVAL   =   5.00  4.00  1.00
  Atomic Wigner-Seitz radii
   RWIGS  =  -1.00 -1.00 -1.00
  virtual crystal weights 
   VCA    =   1.00  1.00  1.00
   NELECT =     128.0000    total number of electrons
   NUPDOWN=      -1.0000    fix difference up-down

 DOS related values:
   EMIN   =  10.00;   EMAX   =-10.00  energy-range for DOS
   EFERMI =   0.00;   METHOD = LEGACY      
   ISMEAR =     0;   SIGMA  =   0.01  broadening in eV -4-tet -1-fermi 0-gaus

 Electronic relaxation 2 (details)
   IALGO  =     58    algorithm
   LDIAG  =      T    sub-space diagonalisation (order eigenvalues)
   LSUBROT=      F    optimize rotation matrix (better conditioning)
   TURBO    =      0    0=normal 1=particle mesh
   IRESTART =      0    0=no restart 2=restart with 2 vectors
   NREBOOT  =      0    no. of reboots
   NMIN     =      0    reboot dimension
   EREF     =   0.00    reference energy to select bands
   IMIX   =      4    mixing-type and parameters
     AMIX     =   0.40;   BMIX     =  1.00
     AMIX_MAG =   1.60;   BMIX_MAG =  1.00
     AMIN     =   0.10
     WC   =   100.;   INIMIX=   1;  MIXPRE=   1;  MAXMIX= -45

 Intra band minimization:
   WEIMIN = 0.0000     energy-eigenvalue tresh-hold
   EBREAK =  0.20E-09  absolut break condition
   DEPER  =   0.30     relativ break condition  

   TIME   =   0.40     timestep for ELM

  volume/ion in A,a.u.               =      10.39        70.12
  Fermi-wavevector in a.u.,A,eV,Ry     =   1.105522  2.089134 16.628761  1.222179
  Thomas-Fermi vector in A             =   2.242010

 Write flags
   LWAVE        =      F    write WAVECAR
   LDOWNSAMPLE  =      F    k-point downsampling of WAVECAR
   LCHARG       =      T    write CHGCAR
   LVTOT        =      F    write LOCPOT, total local potential
   LVHAR        =      F    write LOCPOT, Hartree potential only
   LELF         =      F    write electronic localiz. function (ELF)
   LORBIT       =      0    0 simple, 1 ext, 2 COOP (PROOUT), +10 PAW based schemes


 Dipole corrections
   LMONO  =      F    monopole corrections only (constant potential shift)
   LDIPOL =      F    correct potential (dipole corrections)
   IDIPOL =      0    1-x, 2-y, 3-z, 4-all directions 
   EPSILON=  1.0000000 bulk dielectric constant

 Exchange correlation treatment:
   GGA     =    RP    GGA type
   LEXCH   =     9    internal setting for exchange type
   LIBXC   =     F    Libxc                    
   VOSKOWN =     0    Vosko Wilk Nusair interpolation
   LHFCALC =     F    Hartree Fock is set to
   LHFONE  =     F    Hartree Fock one center treatment
   AEXX    =    0.0000 exact exchange contribution

 Linear response parameters
   LEPSILON=     F    determine dielectric tensor
   LRPA    =     F    only Hartree local field effects (RPA)
   LNABLA  =     F    use nabla operator in PAW spheres
   LVEL    =     F    velocity operator in full k-point grid
   CSHIFT  =0.1000    complex shift for real part using Kramers Kronig
   OMEGAMAX=  -1.0    maximum frequency
   DEG_THRESHOLD= 0.2000000E-02 threshold for treating states as degnerate
   RTIME   =   -0.100 relaxation time in fs
  (WPLASMAI=    0.000 imaginary part of plasma frequency in eV, 0.658/RTIME)
   DFIELD  = 0.0000000 0.0000000 0.0000000 field for delta impulse in time

  Optional k-point grid parameters
   LKPOINTS_OPT  =     F    use optional k-point grid
   KPOINTS_OPT_MODE=     1    mode for optional k-point grid

 Orbital magnetization related:
   ORBITALMAG=     F  switch on orbital magnetization
   LCHIMAG   =     F  perturbation theory with respect to B field
   DQ        =  0.001000  dq finite difference perturbation B field
   LLRAUG    =     F  two centre corrections for induced B field
   LBONE     =     F  B-component reconstruction in AE one-centre
   LVGVCALC  =     T  calculate vGv susceptibility
   LVGVAPPL  =     F  apply vGv susceptibility instead of pGv for G=0

 Random number generation:
   RANDOM_GENERATOR = DEFAULT
   PCG_SEED         = not used


--------------------------------------------------------------------------------------------------------


 Static calculation
 charge density and potential will be updated during run
 non-spin polarized calculation
 Conjugate gradient for all bands (Freysoldt, et al. PRB 79, 241103 (2009))
 preconditioned conjugated gradient                                        
 perform sub-space diagonalisation
    before iterative eigenvector-optimisation
 modified Broyden-mixing scheme, WC =      100.0
 initial mixing is a Kerker type mixing with AMIX =  0.4000 and BMIX =      1.0000
 Hartree-type preconditioning will be used
 using additional bands           64
 reciprocal scheme for non local part
 use partial core corrections
 no Harris-corrections to forces 
 use gradient corrections 
 use of overlap-Matrix (Vanderbilt PP)
 Gauss-broadening in eV      SIGMA  =   0.01


--------------------------------------------------------------------------------------------------------


  energy-cutoff  :     1000.00
  volume of cell :      415.65
      direct lattice vectors                 reciprocal lattice vectors
     6.856000000  0.000000000  0.000000000     0.145857643  0.000000000  0.000000000
     0.000000000  6.628000000  0.000000000     0.000000000  0.150875075  0.000000000
     0.000000000  0.000000000  9.147000000     0.000000000  0.000000000  0.109325462

  length of vectors
     6.856000000  6.628000000  9.147000000     0.145857643  0.150875075  0.109325462



 k-points in units of 2pi/SCALE and weight: auto                                    
   0.00000000  0.00000000  0.00000000       0.021
   0.03646441  0.00000000  0.00000000       0.042
   0.07292882  0.00000000  0.00000000       0.021
   0.00000000  0.03771877  0.00000000       0.042
   0.03646441  0.03771877  0.00000000       0.042
  -0.03646441  0.03771877  0.00000000       0.042
   0.07292882  0.03771877  0.00000000       0.042
   0.00000000  0.07543754  0.00000000       0.021
   0.03646441  0.07543754  0.00000000       0.042
   0.07292882  0.07543754  0.00000000       0.021
   0.00000000  0.00000000  0.03644182       0.042
   0.03646441  0.00000000  0.03644182       0.042
   0.03646441  0.00000000 -0.03644182       0.042
   0.07292882  0.00000000  0.03644182       0.042
   0.00000000  0.03771877  0.03644182       0.042
   0.00000000  0.03771877 -0.03644182       0.042
   0.03646441  0.03771877  0.03644182       0.042
  -0.03646441  0.03771877 -0.03644182       0.042
   0.03646441 -0.03771877 -0.03644182       0.042
  -0.03646441 -0.03771877  0.03644182       0.042
   0.07292882  0.03771877  0.03644182       0.042
   0.07292882  0.03771877 -0.03644182       0.042
   0.00000000  0.07543754  0.03644182       0.042
   0.03646441  0.07543754  0.03644182       0.042
   0.03646441  0.07543754 -0.03644182       0.042
   0.07292882  0.07543754  0.03644182       0.042

 k-points in reciprocal lattice and weights: auto                                    
   0.00000000  0.00000000  0.00000000       0.021
   0.25000000  0.00000000  0.00000000       0.042
   0.50000000  0.00000000  0.00000000       0.021
   0.00000000  0.25000000  0.00000000       0.042
   0.25000000  0.25000000  0.00000000       0.042
  -0.25000000  0.25000000  0.00000000       0.042
   0.50000000  0.25000000  0.00000000       0.042
   0.00000000  0.50000000  0.00000000       0.021
   0.25000000  0.50000000  0.00000000       0.042
   0.50000000  0.50000000  0.00000000       0.021
   0.00000000  0.00000000  0.33333333       0.042
   0.25000000  0.00000000  0.33333333       0.042
   0.25000000  0.00000000 -0.33333333       0.042
   0.50000000  0.00000000  0.33333333       0.042
   0.00000000  0.25000000  0.33333333       0.042
   0.00000000  0.25000000 -0.33333333       0.042
   0.25000000  0.25000000  0.33333333       0.042
  -0.25000000  0.25000000 -0.33333333       0.042
   0.25000000 -0.25000000 -0.33333333       0.042
  -0.25000000 -0.25000000  0.33333333       0.042
   0.50000000  0.25000000  0.33333333       0.042
   0.50000000  0.25000000 -0.33333333       0.042
   0.00000000  0.50000000  0.33333333       0.042
   0.25000000  0.50000000  0.33333333       0.042
   0.25000000  0.50000000 -0.33333333       0.042
   0.50000000  0.50000000  0.33333333       0.042

 position of ions in fractional coordinates (direct lattice) 
   0.14393073  0.16614551  0.10831717
   0.85606958  0.83385984  0.89168256
   0.35607230  0.83386126  0.60831724
   0.64392858  0.16614430  0.39168302
   0.85607207  0.66614672  0.39168387
   0.14392803  0.33385793  0.60831630
   0.64392863  0.33385796  0.89168273
   0.35606930  0.66614684  0.10831891
   0.14646851  0.99719084  0.35025889
   0.85353103  0.00281481  0.64974096
   0.35353215  0.00280553  0.85025453
   0.64647169  0.99719447  0.14974771
   0.85353463  0.49718931  0.14974763
   0.14646476  0.50281593  0.85025231
   0.64646706  0.50280567  0.64973744
   0.35353645  0.49719285  0.35026408
   0.14452170  0.07433787  0.23477690
   0.85547827  0.92566776  0.76522315
   0.35547844  0.92566426  0.73477920
   0.64452367  0.07433846  0.26522218
   0.85547736  0.57433634  0.26521781
   0.14452233  0.42566865  0.73478216
   0.64451726  0.42566723  0.76521770
   0.35548101  0.57433612  0.23478460
   0.21026213  0.10116949  0.01864958
   0.78973743  0.89883445  0.98135044
   0.28974409  0.89883264  0.51865541
   0.71025528  0.10117465  0.48134621
   0.78974323  0.60117540  0.48135074
   0.21025623  0.39882956  0.51864926
   0.71025902  0.39883682  0.98135055
   0.28973979  0.60116867  0.01864945
   0.04604926  0.28240878  0.09450124
   0.95395092  0.71759630  0.90549817
   0.45394327  0.71760293  0.59449894
   0.54605594  0.28240173  0.40549968
   0.95395032  0.78240749  0.40550136
   0.04604908  0.21759783  0.59449868
   0.54604380  0.21759228  0.90549718
   0.45395617  0.78241159  0.09450302

 position of ions in cartesian coordinates  (Angst):
   0.98678911  1.10121243  0.99077714
   5.86921305  5.52682299  8.15622040
   2.44123171  5.52683243  5.56427784
   4.41477435  1.10120445  3.58272460
   5.86923013  4.41522049  3.58273232
   0.98677058  2.21281036  5.56426921
   4.41477470  2.21281058  8.15622196
   2.44121109  4.41522122  0.99079308
   1.00418807  6.60938087  3.20381811
   5.85180871  0.01865656  5.94318052
   2.42381641  0.01859504  7.77727817
   4.43220989  6.60940496  1.36974230
   5.85183345  3.29537075  1.36974155
   1.00416241  3.33266396  7.77725785
   4.43217819  3.33259595  5.94314838
   2.42384593  3.29539420  3.20386558
   0.99084076  0.49271138  2.14750428
   5.86515902  6.13532592  6.99949613
   2.43716021  6.13530272  6.72102533
   4.41885426  0.49271529  2.42598724
   5.86515277  3.80670123  2.42594728
   0.99084508  2.82133178  6.72105241
   4.41881034  2.82132239  6.99944631
   2.43717779  3.80669979  2.14757469
   1.44155719  0.67055139  0.17058773
   5.41443985  5.95747474  8.97641252
   1.98648545  5.95746271  4.74414103
   4.86951020  0.67058557  4.40287378
   5.41447961  3.98459053  4.40291523
   1.44151673  2.64344230  4.74408475
   4.86953587  2.64349042  8.97641347
   1.98645601  3.98454595  0.17058653
   0.31571373  1.87180537  0.86440283
   6.54028750  4.75622829  8.28259175
   3.11223508  4.75627221  5.43788177
   3.74375951  1.87175865  3.70910561
   6.54028342  5.18579686  3.70912097
   0.31571250  1.44223840  5.43787943
   3.74367631  1.44220161  8.28258266
   3.11232348  5.18582400  0.86441911



--------------------------------------------------------------------------------------------------------


 k-point   1 :   0.0000 0.0000 0.0000  plane waves:   29863
 k-point   2 :   0.2500 0.0000 0.0000  plane waves:   29873
 k-point   3 :   0.5000 0.0000 0.0000  plane waves:   29848
 k-point   4 :   0.0000 0.2500 0.0000  plane waves:   29860
 k-point   5 :   0.2500 0.2500 0.0000  plane waves:   29833
 k-point   6 :  -0.2500 0.2500 0.0000  plane waves:   29833
 k-point   7 :   0.5000 0.2500 0.0000  plane waves:   29838
 k-point   8 :   0.0000 0.5000 0.0000  plane waves:   29882
 k-point   9 :   0.2500 0.5000 0.0000  plane waves:   29838
 k-point  10 :   0.5000 0.5000 0.0000  plane waves:   29820
 k-point  11 :   0.0000 0.0000 0.3333  plane waves:   29861
 k-point  12 :   0.2500 0.0000 0.3333  plane waves:   29838
 k-point  13 :   0.2500 0.0000-0.3333  plane waves:   29838
 k-point  14 :   0.5000 0.0000 0.3333  plane waves:   29810
 k-point  15 :   0.0000 0.2500 0.3333  plane waves:   29825
 k-point  16 :   0.0000 0.2500-0.3333  plane waves:   29825
 k-point  17 :   0.2500 0.2500 0.3333  plane waves:   29837
 k-point  18 :  -0.2500 0.2500-0.3333  plane waves:   29837
 k-point  19 :   0.2500-0.2500-0.3333  plane waves:   29837
 k-point  20 :  -0.2500-0.2500 0.3333  plane waves:   29837
 k-point  21 :   0.5000 0.2500 0.3333  plane waves:   29848
 k-point  22 :   0.5000 0.2500-0.3333  plane waves:   29848
 k-point  23 :   0.0000 0.5000 0.3333  plane waves:   29840
 k-point  24 :   0.2500 0.5000 0.3333  plane waves:   29846
 k-point  25 :   0.2500 0.5000-0.3333  plane waves:   29846
 k-point  26 :   0.5000 0.5000 0.3333  plane waves:   29832

 maximum and minimum number of plane-waves per node :     14960    14866

 maximum number of plane-waves:     29882
 maximum index in each direction: 
   IXMAX=   17   IYMAX=   17   IZMAX=   23
   IXMIN=  -18   IYMIN=  -17   IZMIN=  -23


 parallel 3D FFT for wavefunctions:
    minimum data exchange during FFTs selected (reduces bandwidth)
 parallel 3D FFT for charge:
    minimum data exchange during FFTs selected (reduces bandwidth)


 total amount of memory used by VASP MPI-rank0   152941. kBytes
=======================================================================

   base      :      30000. kBytes
   nonl-proj :      84344. kBytes
   fftplans  :       8078. kBytes
   grid      :      11450. kBytes
   one-center:         61. kBytes
   wavefun   :      19008. kBytes

     INWAV:  cpu time      0.0001: real time      0.0002
 Broyden mixing: mesh for mixing (old mesh)
   NGX = 35   NGY = 35   NGZ = 47
  (NGX  =144   NGY  =140   NGZ  =192)
  gives a total of  57575 points

 initial charge density was supplied:
 charge density of overlapping atoms calculated
 number of electron     128.0000000 magnetization 
 keeping initial charge density in first step


--------------------------------------------------------------------------------------------------------


 Maximum index for augmentation-charges          123 (set IRDMAX)


--------------------------------------------------------------------------------------------------------


 First call to EWALD:  gamma=   0.238
 Maximum number of real-space cells 3x 3x 2
 Maximum number of reciprocal cells 3x 2x 3

    FEWALD:  cpu time      0.0024: real time      0.0025


--------------------------------------- Ionic step        1  -------------------------------------------




--------------------------------------- Iteration      1(   1)  ---------------------------------------


    POTLOK:  cpu time      0.0711: real time      0.0720
    SETDIJ:  cpu time      0.0108: real time      0.0115
    TRIAL :  cpu time     16.8711: real time     16.8800
    CORREC:  cpu time      0.0010: real time      0.0010
    --------------------------------------------
      LOOP:  cpu time     16.9738: real time     16.9843

 eigenvalue-minimisations  :  6656
 total energy-change (2. order) : 0.6874428E+03  (-0.1060450E+05)
 number of electron     128.0000000 magnetization 
 augmentation part      128.0000000 magnetization 

 Free energy of the ion-electron system (eV)
  ---------------------------------------------------
  alpha Z        PSCENC =       118.91601032
  Ewald energy   TEWEN  =     -3118.12717471
  -Hartree energ DENC   =     -1912.96877498
  -exchange      EXHF   =         0.00000000
  -V(xc)+E(xc)   XCENC  =       353.05350088
  PAW double counting   =      4251.58371482    -4185.57782021
  entropy T*S    EENTRO =        -0.00066792
  eigenvalues    EBANDS =      -430.81982100
  atomic energy  EATOM  =      5611.38378825
  ---------------------------------------------------
  free energy    TOTEN  =       687.44275544 eV

  energy without entropy =      687.44342336  energy(sigma->0) =      687.44308940


--------------------------------------------------------------------------------------------------------




--------------------------------------- Iteration      1(   2)  ---------------------------------------


    TRIAL :  cpu time     42.9247: real time     42.9520
    CORREC:  cpu time      0.0003: real time      0.0003
    --------------------------------------------
      LOOP:  cpu time     42.9451: real time     42.9816

 eigenvalue-minimisations  :  9984
 total energy-change (2. order) :-0.9239702E+03  (-0.9215599E+03)
 number of electron     128.0000000 magnetization 
 augmentation part      128.0000000 magnetization 

 Free energy of the ion-electron system (eV)
  ---------------------------------------------------
  alpha Z        PSCENC =       118.91601032
  Ewald energy   TEWEN  =     -3118.12717471
  -Hartree energ DENC   =     -1912.96877498
  -exchange      EXHF   =         0.00000000
  -V(xc)+E(xc)   XCENC  =       353.05350088
  PAW double counting   =      4251.58371482    -4185.57782021
  entropy T*S    EENTRO =        -0.00000000
  eigenvalues    EBANDS =     -1354.79069839
  atomic energy  EATOM  =      5611.38378825
  ---------------------------------------------------
  free energy    TOTEN  =      -236.52745403 eV

  energy without entropy =     -236.52745403  energy(sigma->0) =     -236.52745403


--------------------------------------------------------------------------------------------------------




--------------------------------------- Iteration      1(   3)  ---------------------------------------


    TRIAL :  cpu time     19.6196: real time     19.6290
    CORREC:  cpu time      0.0003: real time      0.0003
    --------------------------------------------
      LOOP:  cpu time     19.6313: real time     19.6594

 eigenvalue-minimisations  :  6784
 total energy-change (2. order) :-0.4080472E+02  (-0.4080472E+02)
 number of electron     128.0000000 magnetization 
 augmentation part      128.0000000 magnetization 

 Free energy of the ion-electron system (eV)
  ---------------------------------------------------
  alpha Z        PSCENC =       118.91601032
  Ewald energy   TEWEN  =     -3118.12717471
  -Hartree energ DENC   =     -1912.96877498
  -exchange      EXHF   =         0.00000000
  -V(xc)+E(xc)   XCENC  =       353.05350088
  PAW double counting   =      4251.58371482    -4185.57782021
  entropy T*S    EENTRO =        -0.00000000
  eigenvalues    EBANDS =     -1395.59542300
  atomic energy  EATOM  =      5611.38378825
  ---------------------------------------------------
  free energy    TOTEN  =      -277.33217864 eV

  energy without entropy =     -277.33217864  energy(sigma->0) =     -277.33217864


--------------------------------------------------------------------------------------------------------




--------------------------------------- Iteration      1(   4)  ---------------------------------------


    TRIAL :  cpu time     87.2154: real time     87.2570
    CORREC:  cpu time      0.0003: real time      0.0003
    --------------------------------------------
      LOOP:  cpu time     87.2447: real time     87.2866

 eigenvalue-minimisations  : 13312
 total energy-change (2. order) :-0.3768255E+00  (-0.3768255E+00)
 number of electron     128.0000000 magnetization 
 augmentation part      128.0000000 magnetization 

 Free energy of the ion-electron system (eV)
  ---------------------------------------------------
  alpha Z        PSCENC =       118.91601032
  Ewald energy   TEWEN  =     -3118.12717471
  -Hartree energ DENC   =     -1912.96877498
  -exchange      EXHF   =         0.00000000
  -V(xc)+E(xc)   XCENC  =       353.05350088
  PAW double counting   =      4251.58371482    -4185.57782021
  entropy T*S    EENTRO =        -0.00000000
  eigenvalues    EBANDS =     -1395.97224854
  atomic energy  EATOM  =      5611.38378825
  ---------------------------------------------------
  free energy    TOTEN  =      -277.70900418 eV

  energy without entropy =     -277.70900418  energy(sigma->0) =     -277.70900418


--------------------------------------------------------------------------------------------------------




--------------------------------------- Iteration      1(   5)  ---------------------------------------


    TRIAL :  cpu time     17.6768: real time     17.6857
    CORREC:  cpu time      0.0003: real time      0.0003
    CHARGE:  cpu time      0.3182: real time      0.3193
    --------------------------------------------
      LOOP:  cpu time     18.0154: real time     18.0345

 eigenvalue-minimisations  :  6656
 total energy-change (2. order) :-0.1937564E-04  (-0.1937564E-04)
 number of electron     128.0000000 magnetization 
 augmentation part       -0.3003522 magnetization 

 Free energy of the ion-electron system (eV)
  ---------------------------------------------------
  alpha Z        PSCENC =       118.91601032
  Ewald energy   TEWEN  =     -3118.12717471
  -Hartree energ DENC   =     -1912.96877498
  -exchange      EXHF   =         0.00000000
  -V(xc)+E(xc)   XCENC  =       353.05350088
  PAW double counting   =      4251.58371482    -4185.57782021
  entropy T*S    EENTRO =        -0.00000000
  eigenvalues    EBANDS =     -1395.97226792
  atomic energy  EATOM  =      5611.38378825
  ---------------------------------------------------
  free energy    TOTEN  =      -277.70902356 eV

  energy without entropy =     -277.70902356  energy(sigma->0) =     -277.70902356


--------------------------------------------------------------------------------------------------------




--------------------------------------- Iteration      1(   6)  ---------------------------------------


    POTLOK:  cpu time      0.0310: real time      0.0310
    SETDIJ:  cpu time      0.0023: real time      0.0023
    TRIAL :  cpu time      3.8733: real time      3.8774
    CORREC:  cpu time      1.4178: real time      1.4184
    CHARGE:  cpu time      0.2960: real time      0.2961
    --------------------------------------------
      LOOP:  cpu time      5.6338: real time      5.6542

 eigenvalue-minimisations  :     0
 total energy-change (2. order) : 0.4971559E+02  (-0.2262517E+02)
 number of electron     128.0000000 magnetization 
 augmentation part       -0.4502319 magnetization 

 Free energy of the ion-electron system (eV)
  ---------------------------------------------------
  alpha Z        PSCENC =       118.91601032
  Ewald energy   TEWEN  =     -3118.12717471
  -Hartree energ DENC   =     -2593.75588018
  -exchange      EXHF   =         0.00000000
  -V(xc)+E(xc)   XCENC  =       395.53745293
  PAW double counting   =     50935.78119957   -50874.20667614
  entropy T*S    EENTRO =        -0.00000000
  eigenvalues    EBANDS =      -703.52215162
  atomic energy  EATOM  =      5611.38378825
  ---------------------------------------------------
  free energy    TOTEN  =      -227.99343159 eV

  energy without entropy =     -227.99343159  energy(sigma->0) =     -227.99343159


--------------------------------------------------------------------------------------------------------




--------------------------------------- Iteration      1(   7)  ---------------------------------------


    POTLOK:  cpu time      0.0279: real time      0.0279
    SETDIJ:  cpu time      0.0022: real time      0.0022
    TRIAL :  cpu time      3.6303: real time      3.6329
    CORREC:  cpu time      1.3963: real time      1.3971
    CHARGE:  cpu time      0.2932: real time      0.2941
    --------------------------------------------
      LOOP:  cpu time      5.3793: real time      5.3838

 eigenvalue-minimisations  :     0
 total energy-change (2. order) :-0.2265372E+02  (-0.2782930E+01)
 number of electron     128.0000000 magnetization 
 augmentation part       -0.5180784 magnetization 

 Free energy of the ion-electron system (eV)
  ---------------------------------------------------
  alpha Z        PSCENC =       118.91601032
  Ewald energy   TEWEN  =     -3118.12717471
  -Hartree energ DENC   =     -2312.39820522
  -exchange      EXHF   =         0.00000000
  -V(xc)+E(xc)   XCENC  =       378.51411191
  PAW double counting   =     72845.82244651   -72782.20641466
  entropy T*S    EENTRO =        -0.00000000
  eigenvalues    EBANDS =      -992.55171182
  atomic energy  EATOM  =      5611.38378825
  ---------------------------------------------------
  free energy    TOTEN  =      -250.64714944 eV

  energy without entropy =     -250.64714944  energy(sigma->0) =     -250.64714944


--------------------------------------------------------------------------------------------------------




--------------------------------------- Iteration      1(   8)  ---------------------------------------


    POTLOK:  cpu time      0.0275: real time      0.0275
    SETDIJ:  cpu time      0.0023: real time      0.0023
    TRIAL :  cpu time      3.6270: real time      3.6300
    CORREC:  cpu time      1.3981: real time      1.3995
    CHARGE:  cpu time      0.2932: real time      0.2932
    --------------------------------------------
      LOOP:  cpu time      5.3626: real time      5.3823

 eigenvalue-minimisations  :     0
 total energy-change (2. order) :-0.2775349E+01  (-0.7776635E+00)
 number of electron     128.0000000 magnetization 
 augmentation part       -0.5003940 magnetization 

 Free energy of the ion-electron system (eV)
  ---------------------------------------------------
  alpha Z        PSCENC =       118.91601032
  Ewald energy   TEWEN  =     -3118.12717471
  -Hartree energ DENC   =     -2274.77705983
  -exchange      EXHF   =         0.00000000
  -V(xc)+E(xc)   XCENC  =       376.42458716
  PAW double counting   =     72917.71992564   -72853.79427114
  entropy T*S    EENTRO =        -0.00000000
  eigenvalues    EBANDS =     -1031.16830438
  atomic energy  EATOM  =      5611.38378825
  ---------------------------------------------------
  free energy    TOTEN  =      -253.42249869 eV

  energy without entropy =     -253.42249869  energy(sigma->0) =     -253.42249869


--------------------------------------------------------------------------------------------------------




--------------------------------------- Iteration      1(   9)  ---------------------------------------


    POTLOK:  cpu time      0.0277: real time      0.0277
    SETDIJ:  cpu time      0.0022: real time      0.0022
    TRIAL :  cpu time      3.6987: real time      3.7017
    CORREC:  cpu time      1.3929: real time      1.3936
    CHARGE:  cpu time      0.2926: real time      0.2935
    --------------------------------------------
      LOOP:  cpu time      5.4289: real time      5.4490

 eigenvalue-minimisations  :     0
 total energy-change (2. order) :-0.7745525E+00  (-0.1943476E+00)
 number of electron     128.0000000 magnetization 
 augmentation part       -0.4934443 magnetization 

 Free energy of the ion-electron system (eV)
  ---------------------------------------------------
  alpha Z        PSCENC =       118.91601032
  Ewald energy   TEWEN  =     -3118.12717471
  -Hartree energ DENC   =     -2265.28450951
  -exchange      EXHF   =         0.00000000
  -V(xc)+E(xc)   XCENC  =       375.72399268
  PAW double counting   =     69252.73242237   -69188.86602303
  entropy T*S    EENTRO =        -0.00000000
  eigenvalues    EBANDS =     -1040.67555754
  atomic energy  EATOM  =      5611.38378825
  ---------------------------------------------------
  free energy    TOTEN  =      -254.19705117 eV

  energy without entropy =     -254.19705117  energy(sigma->0) =     -254.19705117


--------------------------------------------------------------------------------------------------------




--------------------------------------- Iteration      1(  10)  ---------------------------------------


    POTLOK:  cpu time      0.0276: real time      0.0276
    SETDIJ:  cpu time      0.0022: real time      0.0022
    TRIAL :  cpu time      3.6487: real time      3.6511
    CORREC:  cpu time      1.3992: real time      1.4005
    CHARGE:  cpu time      0.2931: real time      0.2931
    --------------------------------------------
      LOOP:  cpu time      5.4020: real time      5.4058

 eigenvalue-minimisations  :     0
 total energy-change (2. order) :-0.1942035E+00  (-0.3360032E-01)
 number of electron     128.0000000 magnetization 
 augmentation part       -0.4973338 magnetization 

 Free energy of the ion-electron system (eV)
  ---------------------------------------------------
  alpha Z        PSCENC =       118.91601032
  Ewald energy   TEWEN  =     -3118.12717471
  -Hartree energ DENC   =     -2261.74707357
  -exchange      EXHF   =         0.00000000
  -V(xc)+E(xc)   XCENC  =       375.36403387
  PAW double counting   =     66891.46495111   -66827.65676669
  entropy T*S    EENTRO =        -0.00000000
  eigenvalues    EBANDS =     -1043.98902322
  atomic energy  EATOM  =      5611.38378825
  ---------------------------------------------------
  free energy    TOTEN  =      -254.39125465 eV

  energy without entropy =     -254.39125465  energy(sigma->0) =     -254.39125465


--------------------------------------------------------------------------------------------------------




--------------------------------------- Iteration      1(  11)  ---------------------------------------


    POTLOK:  cpu time      0.0276: real time      0.0276
    SETDIJ:  cpu time      0.0023: real time      0.0023
    TRIAL :  cpu time      3.6209: real time      3.6241
    CORREC:  cpu time      1.3876: real time      1.3881
    CHARGE:  cpu time      0.2956: real time      0.2956
    --------------------------------------------
      LOOP:  cpu time      5.3471: real time      5.3675

 eigenvalue-minimisations  :     0
 total energy-change (2. order) :-0.3357377E-01  (-0.5722252E-02)
 number of electron     128.0000000 magnetization 
 augmentation part       -0.4997307 magnetization 

 Free energy of the ion-electron system (eV)
  ---------------------------------------------------
  alpha Z        PSCENC =       118.91601032
  Ewald energy   TEWEN  =     -3118.12717471
  -Hartree energ DENC   =     -2259.81816526
  -exchange      EXHF   =         0.00000000
  -V(xc)+E(xc)   XCENC  =       375.22553020
  PAW double counting   =     66803.45302238   -66739.64300985
  entropy T*S    EENTRO =        -0.00000000
  eigenvalues    EBANDS =     -1045.81482974
  atomic energy  EATOM  =      5611.38378825
  ---------------------------------------------------
  free energy    TOTEN  =      -254.42482842 eV

  energy without entropy =     -254.42482842  energy(sigma->0) =     -254.42482842


--------------------------------------------------------------------------------------------------------




--------------------------------------- Iteration      1(  12)  ---------------------------------------


    POTLOK:  cpu time      0.0276: real time      0.0276
    SETDIJ:  cpu time      0.0023: real time      0.0023
    TRIAL :  cpu time      3.6340: real time      3.6367
    CORREC:  cpu time      1.4014: real time      1.4023
    CHARGE:  cpu time      0.2906: real time      0.2915
    --------------------------------------------
      LOOP:  cpu time      5.3669: real time      5.3905

 eigenvalue-minimisations  :     0
 total energy-change (2. order) :-0.5709851E-02  (-0.1000887E-02)
 number of electron     128.0000000 magnetization 
 augmentation part       -0.5004005 magnetization 

 Free energy of the ion-electron system (eV)
  ---------------------------------------------------
  alpha Z        PSCENC =       118.91601032
  Ewald energy   TEWEN  =     -3118.12717471
  -Hartree energ DENC   =     -2259.47347024
  -exchange      EXHF   =         0.00000000
  -V(xc)+E(xc)   XCENC  =       375.20303539
  PAW double counting   =     67095.72827619   -67031.91150158
  entropy T*S    EENTRO =        -0.00000000
  eigenvalues    EBANDS =     -1046.14950189
  atomic energy  EATOM  =      5611.38378825
  ---------------------------------------------------
  free energy    TOTEN  =      -254.43053827 eV

  energy without entropy =     -254.43053827  energy(sigma->0) =     -254.43053827


--------------------------------------------------------------------------------------------------------




--------------------------------------- Iteration      1(  13)  ---------------------------------------


    POTLOK:  cpu time      0.0276: real time      0.0276
    SETDIJ:  cpu time      0.0022: real time      0.0022
    TRIAL :  cpu time      3.6213: real time      3.6231
    CORREC:  cpu time      1.3963: real time      1.3976
    CHARGE:  cpu time      0.2932: real time      0.2932
    --------------------------------------------
      LOOP:  cpu time      5.3523: real time      5.3732

 eigenvalue-minimisations  :     0
 total energy-change (2. order) :-0.9973457E-03  (-0.2106676E-03)
 number of electron     128.0000000 magnetization 
 augmentation part       -0.5004742 magnetization 

 Free energy of the ion-electron system (eV)
  ---------------------------------------------------
  alpha Z        PSCENC =       118.91601032
  Ewald energy   TEWEN  =     -3118.12717471
  -Hartree energ DENC   =     -2259.67939605
  -exchange      EXHF   =         0.00000000
  -V(xc)+E(xc)   XCENC  =       375.21823107
  PAW double counting   =     67184.03429087   -67120.21636351
  entropy T*S    EENTRO =        -0.00000000
  eigenvalues    EBANDS =     -1045.96092185
  atomic energy  EATOM  =      5611.38378825
  ---------------------------------------------------
  free energy    TOTEN  =      -254.43153561 eV

  energy without entropy =     -254.43153561  energy(sigma->0) =     -254.43153561


--------------------------------------------------------------------------------------------------------




--------------------------------------- Iteration      1(  14)  ---------------------------------------


    POTLOK:  cpu time      0.0275: real time      0.0275
    SETDIJ:  cpu time      0.0022: real time      0.0023
    TRIAL :  cpu time      3.6232: real time      3.6257
    CORREC:  cpu time      1.3921: real time      1.3926
    CHARGE:  cpu time      0.2923: real time      0.2928
    --------------------------------------------
      LOOP:  cpu time      5.3534: real time      5.3706

 eigenvalue-minimisations  :     0
 total energy-change (2. order) :-0.2110313E-03  (-0.4403910E-04)
 number of electron     128.0000000 magnetization 
 augmentation part       -0.5004541 magnetization 

 Free energy of the ion-electron system (eV)
  ---------------------------------------------------
  alpha Z        PSCENC =       118.91601032
  Ewald energy   TEWEN  =     -3118.12717471
  -Hartree energ DENC   =     -2259.70943409
  -exchange      EXHF   =         0.00000000
  -V(xc)+E(xc)   XCENC  =       375.21987758
  PAW double counting   =     67177.31293929   -67113.49501557
  entropy T*S    EENTRO =        -0.00000000
  eigenvalues    EBANDS =     -1045.93273772
  atomic energy  EATOM  =      5611.38378825
  ---------------------------------------------------
  free energy    TOTEN  =      -254.43174665 eV

  energy without entropy =     -254.43174665  energy(sigma->0) =     -254.43174665


--------------------------------------------------------------------------------------------------------




--------------------------------------- Iteration      1(  15)  ---------------------------------------


    POTLOK:  cpu time      0.0275: real time      0.0275
    SETDIJ:  cpu time      0.0023: real time      0.0023
    TRIAL :  cpu time      3.6318: real time      3.6338
    CORREC:  cpu time      1.4017: real time      1.4026
    CHARGE:  cpu time      0.2926: real time      0.2926
    --------------------------------------------
      LOOP:  cpu time      5.3853: real time      5.3884

 eigenvalue-minimisations  :     0
 total energy-change (2. order) :-0.4415348E-04  (-0.8456815E-05)
 number of electron     128.0000000 magnetization 
 augmentation part       -0.5004646 magnetization 

 Free energy of the ion-electron system (eV)
  ---------------------------------------------------
  alpha Z        PSCENC =       118.91601032
  Ewald energy   TEWEN  =     -3118.12717471
  -Hartree energ DENC   =     -2259.75974876
  -exchange      EXHF   =         0.00000000
  -V(xc)+E(xc)   XCENC  =       375.22261073
  PAW double counting   =     67165.05584054   -67101.23829184
  entropy T*S    EENTRO =        -0.00000000
  eigenvalues    EBANDS =     -1045.88482533
  atomic energy  EATOM  =      5611.38378825
  ---------------------------------------------------
  free energy    TOTEN  =      -254.43179080 eV

  energy without entropy =     -254.43179080  energy(sigma->0) =     -254.43179080


--------------------------------------------------------------------------------------------------------




--------------------------------------- Iteration      1(  16)  ---------------------------------------


    POTLOK:  cpu time      0.0320: real time      0.0320
    SETDIJ:  cpu time      0.0025: real time      0.0025
    TRIAL :  cpu time      3.6605: real time      3.6633
    CORREC:  cpu time      1.3926: real time      1.3930
    CHARGE:  cpu time      0.2939: real time      0.2939
    --------------------------------------------
      LOOP:  cpu time      5.3959: real time      5.4144

 eigenvalue-minimisations  :     0
 total energy-change (2. order) :-0.8356801E-05  (-0.1653390E-05)
 number of electron     128.0000000 magnetization 
 augmentation part       -0.5004862 magnetization 

 Free energy of the ion-electron system (eV)
  ---------------------------------------------------
  alpha Z        PSCENC =       118.91601032
  Ewald energy   TEWEN  =     -3118.12717471
  -Hartree energ DENC   =     -2259.78242348
  -exchange      EXHF   =         0.00000000
  -V(xc)+E(xc)   XCENC  =       375.22394334
  PAW double counting   =     67169.19279650   -67105.37523238
  entropy T*S    EENTRO =        -0.00000000
  eigenvalues    EBANDS =     -1045.86350699
  atomic energy  EATOM  =      5611.38378825
  ---------------------------------------------------
  free energy    TOTEN  =      -254.43179916 eV

  energy without entropy =     -254.43179916  energy(sigma->0) =     -254.43179916


--------------------------------------------------------------------------------------------------------




--------------------------------------- Iteration      1(  17)  ---------------------------------------


    POTLOK:  cpu time      0.0276: real time      0.0276
    SETDIJ:  cpu time      0.0023: real time      0.0023
    TRIAL :  cpu time      3.6279: real time      3.6312
    CORREC:  cpu time      1.3878: real time      1.3887
    CHARGE:  cpu time      0.2908: real time      0.2915
    --------------------------------------------
      LOOP:  cpu time      5.3500: real time      5.3709

 eigenvalue-minimisations  :     0
 total energy-change (2. order) :-0.1516062E-05  (-0.4237470E-06)
 number of electron     128.0000000 magnetization 
 augmentation part       -0.5004888 magnetization 

 Free energy of the ion-electron system (eV)
  ---------------------------------------------------
  alpha Z        PSCENC =       118.91601032
  Ewald energy   TEWEN  =     -3118.12717471
  -Hartree energ DENC   =     -2259.78182837
  -exchange      EXHF   =         0.00000000
  -V(xc)+E(xc)   XCENC  =       375.22409618
  PAW double counting   =     67175.76762330   -67111.94993903
  entropy T*S    EENTRO =        -0.00000000
  eigenvalues    EBANDS =     -1045.86437661
  atomic energy  EATOM  =      5611.38378825
  ---------------------------------------------------
  free energy    TOTEN  =      -254.43180067 eV

  energy without entropy =     -254.43180067  energy(sigma->0) =     -254.43180067


--------------------------------------------------------------------------------------------------------




--------------------------------------- Iteration      1(  18)  ---------------------------------------


    POTLOK:  cpu time      0.0277: real time      0.0277
    SETDIJ:  cpu time      0.0023: real time      0.0023
    TRIAL :  cpu time      3.6229: real time      3.6248
    CORREC:  cpu time      1.3949: real time      1.3961
    CHARGE:  cpu time      0.2939: real time      0.2940
    --------------------------------------------
      LOOP:  cpu time      5.3717: real time      5.3750

 eigenvalue-minimisations  :     0
 total energy-change (2. order) :-0.3127861E-06  (-0.5988130E-07)
 number of electron     128.0000000 magnetization 
 augmentation part       -0.5004855 magnetization 

 Free energy of the ion-electron system (eV)
  ---------------------------------------------------
  alpha Z        PSCENC =       118.91601032
  Ewald energy   TEWEN  =     -3118.12717471
  -Hartree energ DENC   =     -2259.78579376
  -exchange      EXHF   =         0.00000000
  -V(xc)+E(xc)   XCENC  =       375.22431962
  PAW double counting   =     67176.54593524   -67112.72827858
  entropy T*S    EENTRO =        -0.00000000
  eigenvalues    EBANDS =     -1045.86060735
  atomic energy  EATOM  =      5611.38378825
  ---------------------------------------------------
  free energy    TOTEN  =      -254.43180099 eV

  energy without entropy =     -254.43180099  energy(sigma->0) =     -254.43180099


--------------------------------------------------------------------------------------------------------




--------------------------------------- Iteration      1(  19)  ---------------------------------------


    POTLOK:  cpu time      0.0275: real time      0.0275
    SETDIJ:  cpu time      0.0022: real time      0.0022
    TRIAL :  cpu time      3.7090: real time      3.7117
    CORREC:  cpu time      1.3951: real time      1.3957
    EDDIAG:  cpu time      1.3736: real time      1.3747
    CHARGE:  cpu time      0.2927: real time      0.2927
    --------------------------------------------
      LOOP:  cpu time      6.8134: real time      6.8348

 eigenvalue-minimisations  :     0
 total energy-change (2. order) :-0.5581387E-07  (-0.3129213E-07)
 number of electron     128.0000000 magnetization 
 augmentation part       -0.5004834 magnetization 

 Free energy of the ion-electron system (eV)
  ---------------------------------------------------
  alpha Z        PSCENC =       118.91601032
  Ewald energy   TEWEN  =     -3118.12717471
  -Hartree energ DENC   =     -2259.78383614
  -exchange      EXHF   =         0.00000000
  -V(xc)+E(xc)   XCENC  =       375.22422073
  PAW double counting   =     67175.92158628   -67112.10394001
  entropy T*S    EENTRO =        -0.00000000
  eigenvalues    EBANDS =     -1045.86245576
  atomic energy  EATOM  =      5611.38378825
  ---------------------------------------------------
  free energy    TOTEN  =      -254.43180104 eV

  energy without entropy =     -254.43180104  energy(sigma->0) =     -254.43180104


--------------------------------------------------------------------------------------------------------


  average scaling for gradient   1.0101


 average (electrostatic) potential at core
  the test charge radii are     0.5902  0.5770  0.4325
  (the norm of the test charge is              1.0000)
       1 -99.3791       2 -99.3791       3 -99.3789       4 -99.3789       5 -99.3787
       6 -99.3787       7 -99.3789       8 -99.3790       9 -98.1013      10 -98.1013
      11 -98.1015      12 -98.1015      13 -98.1015      14 -98.1015      15 -98.1014
      16 -98.1014      17 -83.0631      18 -83.0631      19 -83.0630      20 -83.0630
      21 -83.0630      22 -83.0630      23 -83.0630      24 -83.0631      25 -41.9627
      26 -41.9627      27 -41.9631      28 -41.9631      29 -41.9625      30 -41.9625
      31 -41.9625      32 -41.9625      33 -42.0339      34 -42.0339      35 -42.0344
      36 -42.0343      37 -42.0337      38 -42.0337      39 -42.0335      40 -42.0335



 E-fermi :  -0.7045     XC(G=0):  -7.6963     alpha+bet : -6.6399

 Fermi energy:        -0.7044826142

 k-point     1 :       0.0000    0.0000    0.0000
  band No.  band energies     occupation 
      1     -18.8591      2.00000
      2     -18.6898      2.00000
      3     -18.5919      2.00000
      4     -18.5624      2.00000
      5     -18.5464      2.00000
      6     -18.5408      2.00000
      7     -18.5309      2.00000
      8     -18.4927      2.00000
      9     -16.9434      2.00000
     10     -16.8312      2.00000
     11     -16.7733      2.00000
     12     -16.7434      2.00000
     13     -16.7087      2.00000
     14     -16.6996      2.00000
     15     -16.5986      2.00000
     16     -16.5557      2.00000
     17      -9.6889      2.00000
     18      -9.5355      2.00000
     19      -9.3748      2.00000
     20      -9.3375      2.00000
     21      -9.3211      2.00000
     22      -9.1988      2.00000
     23      -9.1965      2.00000
     24      -9.1881      2.00000
     25      -8.4530      2.00000
     26      -8.4330      2.00000
     27      -8.3142      2.00000
     28      -8.2171      2.00000
     29      -8.2114      2.00000
     30      -8.1597      2.00000
     31      -7.9474      2.00000
     32      -7.9165      2.00000
     33      -5.0136      2.00000
     34      -4.9115      2.00000
     35      -4.7146      2.00000
     36      -4.6906      2.00000
     37      -4.5613      2.00000
     38      -4.5319      2.00000
     39      -4.4796      2.00000
     40      -4.2833      2.00000
     41      -4.1454      2.00000
     42      -4.0995      2.00000
     43      -4.0993      2.00000
     44      -4.0578      2.00000
     45      -3.8959      2.00000
     46      -3.8805      2.00000
     47      -3.8503      2.00000
     48      -3.7832      2.00000
     49      -2.9842      2.00000
     50      -2.9539      2.00000
     51      -2.9448      2.00000
     52      -2.9405      2.00000
     53      -2.6940      2.00000
     54      -2.6923      2.00000
     55      -2.6024      2.00000
     56      -2.5473      2.00000
     57      -1.5965      2.00000
     58      -1.2427      2.00000
     59      -1.1267      2.00000
     60      -0.9249      2.00000
     61      -0.8731      2.00000
     62      -0.8708      2.00000
     63      -0.8518      2.00000
     64      -0.7969      2.00000
     65       4.1502      0.00000
     66       4.4788      0.00000
     67       4.6197      0.00000
     68       4.7573      0.00000
     69       4.7960      0.00000
     70       4.8017      0.00000
     71       5.1267      0.00000
     72       5.2030      0.00000
     73       5.3087      0.00000
     74       5.5895      0.00000
     75       5.6107      0.00000
     76       5.7740      0.00000
     77       6.1852      0.00000
     78       6.2445      0.00000
     79       6.2696      0.00000
     80       6.4019      0.00000
     81       6.5376      0.00000
     82       6.7283      0.00000
     83       7.8619      0.00000
     84       7.8695      0.00000
     85       8.0184      0.00000
     86       8.1337      0.00000
     87       8.2866      0.00000
     88       8.6056      0.00000
     89       9.1402      0.00000
     90       9.2780      0.00000
     91       9.3904      0.00000
     92       9.5206      0.00000
     93       9.6542      0.00000
     94       9.7458      0.00000
     95       9.9406      0.00000
     96      10.4764      0.00000
     97      10.4955      0.00000
     98      10.5269      0.00000
     99      10.7155      0.00000
    100      10.7375      0.00000
    101      10.7401      0.00000
    102      10.8014      0.00000
    103      10.8081      0.00000
    104      10.9913      0.00000
    105      10.9992      0.00000
    106      11.3206      0.00000
    107      11.3778      0.00000
    108      11.5437      0.00000
    109      11.6334      0.00000
    110      11.7716      0.00000
    111      11.8341      0.00000
    112      12.2724      0.00000
    113      12.2844      0.00000
    114      12.3387      0.00000
    115      12.4754      0.00000
    116      12.4953      0.00000
    117      12.5256      0.00000
    118      12.7873      0.00000
    119      13.0816      0.00000
    120      13.4007      0.00000
    121      13.5029      0.00000
    122      13.6084      0.00000
    123      13.6332      0.00000
    124      13.6499      0.00000
    125      13.6521      0.00000
    126      13.7165      0.00000
    127      14.1334      0.00000
    128      14.2411      0.00000

 k-point     2 :       0.2500    0.0000    0.0000
  band No.  band energies     occupation 
      1     -18.8301      2.00000
      2     -18.6740      2.00000
      3     -18.6575      2.00000
      4     -18.5880      2.00000
      5     -18.5408      2.00000
      6     -18.5257      2.00000
      7     -18.5079      2.00000
      8     -18.4902      2.00000
      9     -16.9306      2.00000
     10     -16.8314      2.00000
     11     -16.8215      2.00000
     12     -16.7533      2.00000
     13     -16.6904      2.00000
     14     -16.6521      2.00000
     15     -16.6091      2.00000
     16     -16.5687      2.00000
     17      -9.6622      2.00000
     18      -9.5151      2.00000
     19      -9.4786      2.00000
     20      -9.3743      2.00000
     21      -9.2541      2.00000
     22      -9.1954      2.00000
     23      -9.1819      2.00000
     24      -9.1778      2.00000
     25      -8.4322      2.00000
     26      -8.3928      2.00000
     27      -8.3295      2.00000
     28      -8.2320      2.00000
     29      -8.1890      2.00000
     30      -8.1228      2.00000
     31      -7.9788      2.00000
     32      -7.9756      2.00000
     33      -4.9351      2.00000
     34      -4.8166      2.00000
     35      -4.6268      2.00000
     36      -4.6142      2.00000
     37      -4.5522      2.00000
     38      -4.5391      2.00000
     39      -4.5146      2.00000
     40      -4.2639      2.00000
     41      -4.2298      2.00000
     42      -4.2140      2.00000
     43      -4.1381      2.00000
     44      -4.1339      2.00000
     45      -3.8773      2.00000
     46      -3.8602      2.00000
     47      -3.8476      2.00000
     48      -3.8011      2.00000
     49      -2.9841      2.00000
     50      -2.9614      2.00000
     51      -2.9532      2.00000
     52      -2.9190      2.00000
     53      -2.8168      2.00000
     54      -2.6795      2.00000
[...]
     56      -2.7000      2.00000
     57      -1.2395      2.00000
     58      -1.2394      2.00000
     59      -1.0735      2.00000
     60      -1.0734      2.00000
     61      -0.9252      2.00000
     62      -0.9251      2.00000
     63      -0.8313      2.00000
     64      -0.8313      2.00000
     65       4.4676      0.00000
     66       4.4677      0.00000
     67       4.6547      0.00000
     68       4.6550      0.00000
     69       4.9504      0.00000
     70       4.9504      0.00000
     71       5.0388      0.00000
     72       5.0391      0.00000
     73       5.7461      0.00000
     74       5.7461      0.00000
     75       5.9276      0.00000
     76       5.9276      0.00000
     77       6.2315      0.00000
     78       6.2316      0.00000
     79       6.4755      0.00000
     80       6.4755      0.00000
     81       6.6932      0.00000
     82       6.6933      0.00000
     83       7.0659      0.00000
     84       7.0660      0.00000
     85       7.6592      0.00000
     86       7.6592      0.00000
     87       8.0674      0.00000
     88       8.0676      0.00000
     89       9.0900      0.00000
     90       9.0901      0.00000
     91       9.8153      0.00000
     92       9.8153      0.00000
     93       9.9771      0.00000
     94       9.9772      0.00000
     95      10.2245      0.00000
     96      10.2246      0.00000
     97      10.3965      0.00000
     98      10.3965      0.00000
     99      10.5935      0.00000
    100      10.5937      0.00000
    101      10.8228      0.00000
    102      10.8229      0.00000
    103      11.1290      0.00000
    104      11.1295      0.00000
    105      11.3419      0.00000
    106      11.3422      0.00000
    107      11.5106      0.00000
    108      11.5109      0.00000
    109      11.5628      0.00000
    110      11.5632      0.00000
    111      11.8288      0.00000
    112      11.8290      0.00000
    113      12.0808      0.00000
    114      12.0810      0.00000
    115      12.4427      0.00000
    116      12.4427      0.00000
    117      12.7722      0.00000
    118      12.7723      0.00000
    119      12.9363      0.00000
    120      12.9366      0.00000
    121      13.5863      0.00000
    122      13.5867      0.00000
    123      13.6417      0.00000
    124      13.6418      0.00000
    125      13.9326      0.00000
    126      13.9331      0.00000
    127      14.6250      0.00000
    128      14.6360      0.00000

 k-point    26 :       0.5000    0.5000    0.3333
  band No.  band energies     occupation 
      1     -18.6323      2.00000
      2     -18.6322      2.00000
      3     -18.6318      2.00000
      4     -18.6318      2.00000
      5     -18.5816      2.00000
      6     -18.5815      2.00000
      7     -18.5811      2.00000
      8     -18.5811      2.00000
      9     -16.7696      2.00000
     10     -16.7695      2.00000
     11     -16.7694      2.00000
     12     -16.7693      2.00000
     13     -16.6881      2.00000
     14     -16.6880      2.00000
     15     -16.6879      2.00000
     16     -16.6878      2.00000
     17      -9.4327      2.00000
     18      -9.4326      2.00000
     19      -9.4322      2.00000
     20      -9.4322      2.00000
     21      -9.2820      2.00000
     22      -9.2820      2.00000
     23      -9.2815      2.00000
     24      -9.2815      2.00000
     25      -8.2383      2.00000
     26      -8.2381      2.00000
     27      -8.2377      2.00000
     28      -8.2377      2.00000
     29      -8.1843      2.00000
     30      -8.1840      2.00000
     31      -8.1837      2.00000
     32      -8.1836      2.00000
     33      -4.6167      2.00000
     34      -4.6165      2.00000
     35      -4.6164      2.00000
     36      -4.6163      2.00000
     37      -4.4713      2.00000
     38      -4.4711      2.00000
     39      -4.4710      2.00000
     40      -4.4709      2.00000
     41      -4.1876      2.00000
     42      -4.1875      2.00000
     43      -4.1875      2.00000
     44      -4.1874      2.00000
     45      -3.9158      2.00000
     46      -3.9157      2.00000
     47      -3.9156      2.00000
     48      -3.9156      2.00000
     49      -2.9428      2.00000
     50      -2.9427      2.00000
     51      -2.9425      2.00000
     52      -2.9423      2.00000
     53      -2.7902      2.00000
     54      -2.7901      2.00000
     55      -2.7899      2.00000
     56      -2.7897      2.00000
     57      -1.1302      2.00000
     58      -1.1302      2.00000
     59      -1.1301      2.00000
     60      -1.1300      2.00000
     61      -0.8991      2.00000
     62      -0.8991      2.00000
     63      -0.8990      2.00000
     64      -0.8990      2.00000
     65       4.5496      0.00000
     66       4.5498      0.00000
     67       4.5499      0.00000
     68       4.5500      0.00000
     69       5.0019      0.00000
     70       5.0021      0.00000
     71       5.0022      0.00000
     72       5.0024      0.00000
     73       5.9506      0.00000
     74       5.9506      0.00000
     75       5.9507      0.00000
     76       5.9507      0.00000
     77       6.2704      0.00000
     78       6.2705      0.00000
     79       6.2706      0.00000
     80       6.2706      0.00000
     81       7.1207      0.00000
     82       7.1208      0.00000
     83       7.1208      0.00000
     84       7.1209      0.00000
     85       7.6210      0.00000
     86       7.6211      0.00000
     87       7.6211      0.00000
     88       7.6213      0.00000
     89       9.5256      0.00000
     90       9.5256      0.00000
     91       9.5258      0.00000
     92       9.5258      0.00000
     93      10.1169      0.00000
     94      10.1170      0.00000
     95      10.1172      0.00000
     96      10.1172      0.00000
     97      10.4155      0.00000
     98      10.4156      0.00000
     99      10.4158      0.00000
    100      10.4159      0.00000
    101      10.8795      0.00000
    102      10.8798      0.00000
    103      10.8799      0.00000
    104      10.8801      0.00000
    105      11.3410      0.00000
    106      11.3411      0.00000
    107      11.3413      0.00000
    108      11.3414      0.00000
    109      11.6173      0.00000
    110      11.6174      0.00000
    111      11.6176      0.00000
    112      11.6178      0.00000
    113      12.2452      0.00000
    114      12.2453      0.00000
    115      12.2454      0.00000
    116      12.2455      0.00000
    117      12.8445      0.00000
    118      12.8447      0.00000
    119      12.8448      0.00000
    120      12.8449      0.00000
    121      13.7498      0.00000
    122      13.7500      0.00000
    123      13.7501      0.00000
    124      13.7502      0.00000
    125      14.2847      0.00000
    126      14.2849      0.00000
    127      14.2849      0.00000
    128      14.2851      0.00000


--------------------------------------------------------------------------------------------------------


 soft charge-density along one line, spin component           1
         0         1         2         3         4         5         6         7         8         9
 total charge-density along one line

 pseudopotential strength for first ion, spin component:           1
 19.910  27.885  -0.017   0.019  -0.010  -0.026   0.028  -0.014
 27.885  39.056  -0.024   0.026  -0.013  -0.036   0.039  -0.020
 -0.017  -0.024  -5.733   0.005   0.008  -8.601   0.007   0.012
  0.019   0.026   0.005  -5.741   0.003   0.007  -8.614   0.004
 -0.010  -0.013   0.008   0.003  -5.728   0.012   0.004  -8.593
 -0.026  -0.036  -8.601   0.007   0.012 -12.884   0.011   0.018
  0.028   0.039   0.007  -8.614   0.004   0.011 -12.904   0.007
 -0.014  -0.020   0.012   0.004  -8.593   0.018   0.007 -12.872
 total augmentation occupancy for first ion, spin component:           1
 13.378  -6.434  -1.397   1.799  -0.627   0.720  -0.984   0.294
 -6.434   3.159   0.937  -1.231   0.404  -0.446   0.640  -0.166
 -1.397   0.937   7.605  -1.111  -1.881  -3.015   0.653   1.052
  1.799  -1.231  -1.111   9.775  -0.717   0.653  -4.261   0.399
 -0.627   0.404  -1.881  -0.717   6.346   1.052   0.399  -2.293
  0.720  -0.446  -3.015   0.653   1.052   1.235  -0.341  -0.510
 -0.984   0.640   0.653  -4.261   0.399  -0.341   1.874  -0.193
  0.294  -0.166   1.052   0.399  -2.293  -0.510  -0.193   0.872


------------------------ aborting loop because EDIFF is reached ----------------------------------------


    FORLOC:  cpu time      0.0069: real time      0.0069
    FORNL :  cpu time      1.9353: real time      1.9363
    FORCOR:  cpu time      0.0255: real time      0.0260
    OFIELD:  cpu time      0.0029: real time      0.0032

 ---------------------------------------------------------------------------------------------

         DFTD3 V3.0 Rev 1        
 IVDW         = 11
 DF rpbe      
 parameters
 VDW_S6       =    1.0000
 VDW_S8       =    0.5140
 VDW_SR       =    0.8720
 rs18     =    1.0000
 alpha6   =   14.0000
 alpha8   =   16.0000
 k1-k3    =   16.0000    1.3333   -4.0000
 VDW_RADIUS   =   50.2022 A
 VDW_CNRADIUS =   21.1671 A
 Edisp (eV)   -4.10391

 E6    (eV) :    -3.4483
 E8    (eV) :    -0.6556
 % E8        : 15.97
    FORVDW:  cpu time      0.4873: real time      0.4874

 VOLUME and BASIS-vectors are now :
 -----------------------------------------------------------------------------
  energy-cutoff  :     1000.00
  volume of cell :      415.65
      direct lattice vectors                 reciprocal lattice vectors
     6.856000000  0.000000000  0.000000000     0.145857643  0.000000000  0.000000000
     0.000000000  6.628000000  0.000000000     0.000000000  0.150875075  0.000000000
     0.000000000  0.000000000  9.147000000     0.000000000  0.000000000  0.109325462

  length of vectors
     6.856000000  6.628000000  9.147000000     0.145857643  0.150875075  0.109325462


 FORCES acting on ions:
    Electron-Ion                     Ewald-Force                    Non-Local-Force
 -----------------------------------------------------------------------------------------------
   -.532E+01 -.377E+02 0.832E+02   0.104E+02 0.470E+02 -.931E+02   -.512E+01 -.927E+01 0.981E+01
   0.532E+01 0.377E+02 -.832E+02   -.104E+02 -.470E+02 0.931E+02   0.512E+01 0.927E+01 -.981E+01
   0.532E+01 0.377E+02 0.832E+02   -.104E+02 -.469E+02 -.931E+02   0.512E+01 0.927E+01 0.981E+01
   -.532E+01 -.377E+02 -.832E+02   0.104E+02 0.470E+02 0.931E+02   -.512E+01 -.927E+01 -.981E+01
   0.532E+01 -.377E+02 -.832E+02   -.104E+02 0.469E+02 0.931E+02   0.512E+01 -.927E+01 -.981E+01
   -.532E+01 0.377E+02 0.832E+02   0.104E+02 -.469E+02 -.931E+02   -.512E+01 0.927E+01 0.981E+01
   -.532E+01 0.377E+02 -.832E+02   0.104E+02 -.470E+02 0.931E+02   -.512E+01 0.927E+01 -.981E+01
   0.532E+01 -.377E+02 0.832E+02   -.104E+02 0.470E+02 -.931E+02   0.512E+01 -.927E+01 0.981E+01
   -.329E+01 0.586E+02 -.143E+03   0.393E+01 -.731E+02 0.174E+03   -.638E+00 0.144E+02 -.306E+02
   0.329E+01 -.586E+02 0.143E+03   -.393E+01 0.731E+02 -.174E+03   0.638E+00 -.144E+02 0.306E+02
   0.329E+01 -.586E+02 -.143E+03   -.393E+01 0.731E+02 0.174E+03   0.638E+00 -.144E+02 -.306E+02
   -.329E+01 0.586E+02 0.143E+03   0.393E+01 -.731E+02 -.174E+03   -.638E+00 0.144E+02 0.306E+02
   0.329E+01 0.586E+02 0.143E+03   -.393E+01 -.731E+02 -.174E+03   0.637E+00 0.144E+02 0.306E+02
   -.329E+01 -.586E+02 -.143E+03   0.393E+01 0.731E+02 0.174E+03   -.637E+00 -.144E+02 -.306E+02
   -.329E+01 -.586E+02 0.143E+03   0.393E+01 0.731E+02 -.174E+03   -.639E+00 -.144E+02 0.306E+02
   0.329E+01 0.586E+02 -.143E+03   -.393E+01 -.731E+02 0.174E+03   0.637E+00 0.144E+02 -.306E+02
   0.310E+01 -.136E+02 0.376E+02   -.325E+01 0.943E+01 -.302E+02   0.139E+00 0.452E+01 -.816E+01
   -.310E+01 0.136E+02 -.376E+02   0.325E+01 -.943E+01 0.302E+02   -.139E+00 -.452E+01 0.816E+01
   -.310E+01 0.136E+02 0.376E+02   0.325E+01 -.944E+01 -.302E+02   -.139E+00 -.452E+01 -.817E+01
   0.310E+01 -.136E+02 -.376E+02   -.325E+01 0.944E+01 0.302E+02   0.139E+00 0.452E+01 0.817E+01
   -.309E+01 -.136E+02 -.376E+02   0.325E+01 0.946E+01 0.302E+02   -.139E+00 0.452E+01 0.817E+01
   0.309E+01 0.136E+02 0.376E+02   -.325E+01 -.946E+01 -.302E+02   0.139E+00 -.452E+01 -.817E+01
   0.310E+01 0.136E+02 -.376E+02   -.326E+01 -.944E+01 0.302E+02   0.139E+00 -.452E+01 0.817E+01
   -.310E+01 -.136E+02 0.376E+02   0.325E+01 0.944E+01 -.302E+02   -.139E+00 0.452E+01 -.817E+01
   -.206E+02 0.194E+02 0.434E+02   0.237E+02 -.223E+02 -.490E+02   -.315E+01 0.287E+01 0.567E+01
   0.206E+02 -.194E+02 -.434E+02   -.237E+02 0.223E+02 0.490E+02   0.315E+01 -.287E+01 -.567E+01
   0.206E+02 -.194E+02 0.434E+02   -.237E+02 0.223E+02 -.490E+02   0.315E+01 -.287E+01 0.568E+01
   -.206E+02 0.194E+02 -.434E+02   0.237E+02 -.223E+02 0.490E+02   -.315E+01 0.287E+01 -.568E+01
   0.206E+02 0.194E+02 -.434E+02   -.237E+02 -.223E+02 0.490E+02   0.315E+01 0.287E+01 -.568E+01
   -.206E+02 -.194E+02 0.434E+02   0.237E+02 0.223E+02 -.490E+02   -.315E+01 -.287E+01 0.568E+01
   -.206E+02 -.194E+02 -.434E+02   0.237E+02 0.223E+02 0.490E+02   -.315E+01 -.287E+01 -.567E+01
   0.206E+02 0.194E+02 0.434E+02   -.237E+02 -.223E+02 -.490E+02   0.315E+01 0.287E+01 0.567E+01
   0.341E+02 -.387E+02 0.152E+02   -.387E+02 0.440E+02 -.161E+02   0.462E+01 -.539E+01 0.911E+00
   -.341E+02 0.387E+02 -.152E+02   0.387E+02 -.440E+02 0.161E+02   -.462E+01 0.539E+01 -.911E+00
   -.341E+02 0.387E+02 0.152E+02   0.387E+02 -.440E+02 -.161E+02   -.462E+01 0.539E+01 0.912E+00
   0.341E+02 -.387E+02 -.152E+02   -.387E+02 0.440E+02 0.161E+02   0.462E+01 -.539E+01 -.912E+00
   -.341E+02 -.387E+02 -.152E+02   0.387E+02 0.440E+02 0.161E+02   -.462E+01 -.539E+01 -.912E+00
   0.341E+02 0.387E+02 0.152E+02   -.387E+02 -.440E+02 -.161E+02   0.462E+01 0.539E+01 0.912E+00
   0.341E+02 0.387E+02 -.152E+02   -.387E+02 -.440E+02 0.161E+02   0.462E+01 0.539E+01 -.911E+00
   -.341E+02 -.387E+02 0.152E+02   0.387E+02 0.440E+02 -.161E+02   -.462E+01 -.539E+01 0.911E+00
 -----------------------------------------------------------------------------------------------
   0.214E-02 -.135E-02 -.130E-03   -.213E-13 0.711E-13 -.128E-12   -.214E-02 0.135E-02 0.123E-03


 POSITION                                       TOTAL-FORCE (eV/Angst)
 -----------------------------------------------------------------------------------
      0.98679      1.10121      0.99078        -0.024681      0.097633     -0.191482
      5.86921      5.52682      8.15622         0.024692     -0.097666      0.191551
      2.44123      5.52683      5.56428         0.024123     -0.096838     -0.189494
      4.41477      1.10120      3.58272        -0.024123      0.096822      0.189507
      5.86923      4.41522      3.58273         0.024369      0.096266      0.188339
      0.98677      2.21281      5.56427        -0.024372     -0.096288     -0.188338
      4.41477      2.21281      8.15622        -0.025262     -0.097207      0.189673
      2.44121      4.41522      0.99079         0.025239      0.097090     -0.189480
      1.00419      6.60938      3.20382         0.013003     -0.163948      0.368851
      5.85181      0.01866      5.94318        -0.012987      0.163893     -0.368701
      2.42382      0.01860      7.77728        -0.013142      0.167302      0.375611
      4.43221      6.60940      1.36974         0.013122     -0.167240     -0.375546
      5.85183      3.29537      1.36974        -0.013288     -0.168288     -0.377981
      1.00416      3.33266      7.77726         0.013301      0.168266      0.377946
      4.43218      3.33260      5.94315         0.012975      0.165777     -0.372258
      2.42385      3.29539      3.20387        -0.013081     -0.165328      0.371582
      0.99084      0.49271      2.14750        -0.001557      0.096381     -0.215849
      5.86516      6.13533      6.99950         0.001539     -0.096289      0.215637
      2.43716      6.13530      6.72103         0.001761     -0.099584     -0.222716
      4.41885      0.49272      2.42599        -0.001745      0.099549      0.222653
      5.86515      3.80670      2.42595         0.002016      0.102041      0.227976
      0.99085      2.82133      6.72105        -0.002023     -0.102022     -0.227931
      4.41881      2.82132      6.99945        -0.001407     -0.099282      0.221540
      2.43718      3.80670      2.14757         0.001585      0.099119     -0.221504
      1.44156      0.67055      0.17059        -0.024879      0.023057      0.051623
      5.41444      5.95747      8.97641         0.024884     -0.023051     -0.051613
      1.98649      5.95746      4.74414         0.023791     -0.022043      0.049913
      4.86951      0.67059      4.40287        -0.023783      0.022028     -0.049945
      5.41448      3.98459      4.40292         0.024390      0.022483     -0.051232
      1.44152      2.64344      4.74408        -0.024371     -0.022493      0.051232
      4.86954      2.64349      8.97641        -0.025067     -0.023202     -0.051929
      1.98646      3.98455      0.17059         0.025125      0.023226      0.052215
      0.31571      1.87181      0.86440         0.057160     -0.056534      0.014617
      6.54029      4.75623      8.28259        -0.057164      0.056532     -0.014619
      3.11224      4.75627      5.43788        -0.055566      0.054707      0.014414
      3.74376      1.87176      3.70911         0.055567     -0.054699     -0.014421
      6.54028      5.18580      3.70912        -0.056559     -0.055947     -0.014856
      0.31571      1.44224      5.43788         0.056545      0.055943      0.014857
      3.74368      1.44220      8.28258         0.057819      0.057299     -0.014695
      3.11232      5.18582      0.86442        -0.057949     -0.057467      0.014852
 -----------------------------------------------------------------------------------
    total drift:                                0.000001     -0.000000     -0.000007


--------------------------------------------------------------------------------------------------------



  FREE ENERGIE OF THE ION-ELECTRON SYSTEM (eV)
  ---------------------------------------------------
  free  energy   TOTEN  =      -258.53570636 eV

  energy  without entropy=     -258.53570636  energy(sigma->0) =     -258.53570636



--------------------------------------------------------------------------------------------------------


    POTLOK:  cpu time      0.0766: real time      0.0766


--------------------------------------------------------------------------------------------------------


 stress matrix after NEB project (eV)
     -6.99297      0.00002      0.00001
      0.00002     -6.68626      0.00003
      0.00001      0.00003     -5.01090
  FORCES: max atom, RMS     0.413965    0.237855
  FORCE total and by dimension    1.504330    0.377981
  Stress total and by dimension   10.895720    6.992965
     LOOP+:  cpu time    270.2059: real time    270.5797
    4ORBIT:  cpu time      0.0000: real time      0.0000

 total amount of memory used by VASP MPI-rank0   152941. kBytes
=======================================================================

   base      :      30000. kBytes
   nonl-proj :      84344. kBytes
   fftplans  :       8078. kBytes
   grid      :      11450. kBytes
   one-center:         61. kBytes
   wavefun   :      19008. kBytes

  
  
 General timing and accounting informations for this job:
 ========================================================
  
                  Total CPU time used (sec):      302.590
                            User time (sec):      300.359
                          System time (sec):        2.231
                         Elapsed time (sec):      308.137
  
                   Maximum memory used (kb):      414008.
                   Average memory used (kb):          N/A
  
                          Minor page faults:        69997
                          Major page faults:         1158
                 Voluntary context switches:         5991
