 vasp.6.4.1 05Apr23 (build Jun  6 2023 14:36:51) complex                         
 executed on        HPECrayEX_GCC date 2024.08.20  14:27:54
 running  256 mpi-ranks, with    1 threads/rank, on    2 nodes
 distrk:  each k-point on  256 cores,    1 groups
 distr:  one band on NCORE=  64 cores,    4 groups


--------------------------------------------------------------------------------------------------------


 INCAR:
   ALGO = Conjugate
   NPAR = 4
   ISMEAR = 0
   SIGMA = 0.01
   PREC = Accurate
   EDIFF = 1E-7
   ENCUT = 1000
   ISIF = 0
   GGA = RE
   LUSE_VDW = .TRUE.
   AGGAC = 0.0000
   LASPH = .TRUE.
   LWAVE = .FALSE.
   LCHARGE = .FALSE.

 POTCAR:    PAW_PBE N_h 06Feb2004                 
 POTCAR:    PAW_PBE C_h 06Feb2004                 
 POTCAR:    PAW_PBE H_h 06Feb2004                 
 -----------------------------------------------------------------------------
|                                                                             |
|               ----> ADVICE to this user running VASP <----                  |
|                                                                             |
|     You have switched on vdW-DFT.                                           |
|     This routine was written and supplied by Jiri Klimes. We recommend      |
|     that you carefully read and cite the following publications:            |
|       J. Klimes, D.R. Bowler, A. Michelides                                 |
|          J. Phys.: Cond Matt. 22 022201 (2010)                              |
|       J. Klimes, D.R. Bowler, A. Michelides                                 |
|          Phys. Rev. B. 83, 195131 (2011)                                    |
|     and references therein.                                                 |
|                                                                             |
 -----------------------------------------------------------------------------

 POTCAR:    PAW_PBE N_h 06Feb2004                 
   VRHFIN =N: s2p3                                                                                  
   LEXCH  = PE                                                                                      
   EATOM  =   264.5486 eV,   19.4438 Ry                                                             
                                                                                                    
   TITEL  = PAW_PBE N_h 06Feb2004                                                                   
   LULTRA =        F    use ultrasoft PP ?                                                          
   IUNSCR =        1    unscreen: 0-lin 1-nonlin 2-no                                               
   RPACOR =    0.800    partial core radius                                                         
   POMASS =   14.001; ZVAL   =    5.000    mass and valenz                                          
   RCORE  =    1.100    outmost cutoff radius                                                       
   RWIGS  =    1.480; RWIGS  =    0.783    wigner-seitz radius (au A)                               
   ENMAX  =  700.000; ENMIN  =  500.000 eV                                                          
   ICORE  =        2    local potential                                                             
   LCOR   =        T    correct aug charges                                                         
   LPAW   =        T    paw PP                                                                      
   EAUG   =  904.640                                                                                
   DEXC   =    0.000                                                                                
   RMAX   =    1.127    core radius for proj-oper                                                   
   RAUG   =    1.300    factor for augmentation sphere                                              
   RDEP   =    1.115    radius for radial grids                                                     
   RDEPT  =    1.106    core radius for aug-charge                                                  
                                                                                                    
   Atomic configuration                                                                             
    4 entries                                                                                       
     n  l   j            E        occ.                                                              
     1  0  0.50      -384.7179   2.0000                                                             
     2  0  0.50       -18.5828   2.0000                                                             
     2  1  0.50        -7.0898   3.0000                                                             
     3  2  1.50        -6.8029   0.0000                                                             
   Description                                                                                      
     l       E           TYP  RCUT    TYP  RCUT                                                     
     0    -18.5828117     23  1.100                                                                 
     0    -15.0750597     23  1.100                                                                 
     1     -7.0897851     23  1.100                                                                 
     1     -1.9663412     23  1.100                                                                 
     2     -6.8029130      7  1.100                                                                 
  local pseudopotential read in
  partial core-charges read in
  partial kinetic energy density read in
  kinetic energy density of atom read in
  atomic valenz-charges read in
  non local Contribution for L=           0  read in
    real space projection operators read in
  non local Contribution for L=           0  read in
    real space projection operators read in
  non local Contribution for L=           1  read in
    real space projection operators read in
  non local Contribution for L=           1  read in
    real space projection operators read in
    PAW grid and wavefunctions read in

   number of l-projection  operators is LMAX  =           4
   number of lm-projection operators is LMMAX =           8

 POTCAR:    PAW_PBE C_h 06Feb2004                 
   VRHFIN =C: s2p2                                                                                  
   LEXCH  = PE                                                                                      
   EATOM  =   147.1560 eV,   10.8157 Ry                                                             
                                                                                                    
   TITEL  = PAW_PBE C_h 06Feb2004                                                                   
   LULTRA =        F    use ultrasoft PP ?                                                          
   IUNSCR =        1    unscreen: 0-lin 1-nonlin 2-no                                               
   RPACOR =    0.800    partial core radius                                                         
   POMASS =   12.011; ZVAL   =    4.000    mass and valenz                                          
   RCORE  =    1.100    outmost cutoff radius                                                       
   RWIGS  =    1.630; RWIGS  =    0.863    wigner-seitz radius (au A)                               
   ENMAX  =  700.000; ENMIN  =  500.000 eV                                                          
   ICORE  =        2    local potential                                                             
   LCOR   =        T    correct aug charges                                                         
   LPAW   =        T    paw PP                                                                      
   EAUG   =  946.768                                                                                
   DEXC   =    0.000                                                                                
   RMAX   =    1.128    core radius for proj-oper                                                   
   RAUG   =    1.300    factor for augmentation sphere                                              
   RDEP   =    1.162    radius for radial grids                                                     
   RDEPT  =    1.088    core radius for aug-charge                                                  
                                                                                                    
   Atomic configuration                                                                             
    4 entries                                                                                       
     n  l   j            E        occ.                                                              
     1  0  0.50      -273.3789   2.0000                                                             
     2  0  0.50       -13.7508   2.0000                                                             
     2  1  0.50        -5.2854   2.0000                                                             
     3  2  1.50        -5.4423   0.0000                                                             
   Description                                                                                      
     l       E           TYP  RCUT    TYP  RCUT                                                     
     0    -13.7508458     23  1.100                                                                 
     0     -8.2022199     23  1.100                                                                 
     1     -5.2854383     23  1.100                                                                 
     1      1.1560700     23  1.100                                                                 
     2     -5.4423304      7  1.100                                                                 
  local pseudopotential read in
  partial core-charges read in
  partial kinetic energy density read in
  atomic valenz-charges read in
  non local Contribution for L=           0  read in
    real space projection operators read in
  non local Contribution for L=           0  read in
    real space projection operators read in
  non local Contribution for L=           1  read in
    real space projection operators read in
  non local Contribution for L=           1  read in
    real space projection operators read in
    PAW grid and wavefunctions read in

   number of l-projection  operators is LMAX  =           4
   number of lm-projection operators is LMMAX =           8

 POTCAR:    PAW_PBE H_h 06Feb2004                 
   VRHFIN =H: ultrasoft test                                                                        
   LEXCH  = PE                                                                                      
   EATOM  =    12.4884 eV,    0.9179 Ry                                                             
                                                                                                    
   TITEL  = PAW_PBE H_h 06Feb2004                                                                   
   LULTRA =        F    use ultrasoft PP ?                                                          
   IUNSCR =        0    unscreen: 0-lin 1-nonlin 2-no                                               
   RPACOR =    0.000    partial core radius                                                         
   POMASS =    1.000; ZVAL   =    1.000    mass and valenz                                          
   RCORE  =    0.800    outmost cutoff radius                                                       
   RWIGS  =    0.700; RWIGS  =    0.370    wigner-seitz radius (au A)                               
   ENMAX  =  700.000; ENMIN  =  350.000 eV                                                          
   RCLOC  =    0.701    cutoff for local pot                                                        
   LCOR   =        T    correct aug charges                                                         
   LPAW   =        T    paw PP                                                                      
   EAUG   = 1000.000                                                                                
   RMAX   =    0.819    core radius for proj-oper                                                   
   RAUG   =    1.000    factor for augmentation sphere                                              
   RDEP   =    0.817    radius for radial grids                                                     
   RDEPT  =    0.817    core radius for aug-charge                                                  
                                                                                                    
   Atomic configuration                                                                             
    2 entries                                                                                       
     n  l   j            E        occ.                                                              
     1  0  0.50        -6.4927   1.0000                                                             
     2  1  0.50        -3.4015   0.0000                                                             
   Description                                                                                      
     l       E           TYP  RCUT    TYP  RCUT                                                     
     0     -6.4927493     23  0.800                                                                 
     0      6.8029130     23  0.800                                                                 
     1     -6.8029130     23  0.800                                                                 
  local pseudopotential read in
  atomic valenz-charges read in
  non local Contribution for L=           0  read in
    real space projection operators read in
  non local Contribution for L=           0  read in
    real space projection operators read in
  non local Contribution for L=           1  read in
    real space projection operators read in
    PAW grid and wavefunctions read in

   number of l-projection  operators is LMAX  =           3
   number of lm-projection operators is LMMAX =           5

 -----------------------------------------------------------------------------
|                                                                             |
|               ----> ADVICE to this user running VASP <----                  |
|                                                                             |
|     You have a (more or less) 'large supercell' and for larger cells it     |
|     might be more efficient to use real-space projection operators.         |
|     Therefore, try LREAL= Auto in the INCAR file.                           |
|     Mind: For very accurate calculation, you might also keep the            |
|     reciprocal projection scheme (i.e. LREAL=.FALSE.).                      |
|                                                                             |
 -----------------------------------------------------------------------------

 -----------------------------------------------------------------------------
|                                                                             |
|               ----> ADVICE to this user running VASP <----                  |
|                                                                             |
|     You enforced a specific xc type in the INCAR file but a different       |
|     type was found in the POTCAR file.                                      |
|     I HOPE YOU KNOW WHAT YOU ARE DOING!                                     |
|                                                                             |
 -----------------------------------------------------------------------------

  PAW_PBE N_h 06Feb2004                 :
 energy of atom  1       EATOM= -264.5486
 kinetic energy error for atom=    0.0081 (will be added to EATOM!!)
  PAW_PBE C_h 06Feb2004                 :
 energy of atom  2       EATOM= -147.1560
 kinetic energy error for atom=    0.0031 (will be added to EATOM!!)
  PAW_PBE H_h 06Feb2004                 :
 energy of atom  3       EATOM=  -12.4884
 kinetic energy error for atom=    0.0006 (will be added to EATOM!!)


 POSCAR:  N  C  H
  positions in cartesian coordinates
  No initial velocities read in
 exchange correlation table for  LEXCH =       40
   RHO(1)=    0.500       N(1)  =     2000
   RHO(2)=  100.500       N(2)  =     4000

 VTST: version 4.1, (05/19/21)

 CHAIN: initializing optimizer
 
 OPT: Using VASP Dynamics algorithm
 CHAIN: Read ICHAIN            0

 POSCAR:  N  C  H
  positions in cartesian coordinates
  No initial velocities read in



--------------------------------------------------------------------------------------------------------


 ion  position               nearest neighbor table
   1  0.144  0.166  0.108-  33 1.03  25 1.03  17 1.31
   2  0.856  0.834  0.892-  34 1.03  26 1.03  18 1.31
   3  0.356  0.834  0.608-  35 1.03  27 1.03  19 1.31
   4  0.644  0.166  0.392-  36 1.03  28 1.03  20 1.31
   5  0.856  0.666  0.392-  37 1.03  29 1.03  21 1.31
   6  0.144  0.334  0.608-  38 1.03  30 1.03  22 1.31
   7  0.644  0.334  0.892-  39 1.03  31 1.03  23 1.31
   8  0.356  0.666  0.108-  40 1.03  32 1.03  24 1.31
   9  0.146  0.997  0.350-  17 1.17
  10  0.854  0.003  0.650-  18 1.17
  11  0.354  0.003  0.850-  19 1.17
  12  0.646  0.997  0.150-  20 1.17
  13  0.854  0.497  0.150-  21 1.17
  14  0.146  0.503  0.850-  22 1.17
  15  0.646  0.503  0.650-  23 1.17
  16  0.354  0.497  0.350-  24 1.17
  17  0.145  0.074  0.235-   9 1.17   1 1.31
  18  0.855  0.926  0.765-  10 1.17   2 1.31
  19  0.355  0.926  0.735-  11 1.17   3 1.31
  20  0.645  0.074  0.265-  12 1.17   4 1.31
  21  0.855  0.574  0.265-  13 1.17   5 1.31
  22  0.145  0.426  0.735-  14 1.17   6 1.31
  23  0.645  0.426  0.765-  15 1.17   7 1.31
  24  0.355  0.574  0.235-  16 1.17   8 1.31
  25  0.210  0.101  0.019-   1 1.03
  26  0.790  0.899  0.981-   2 1.03
  27  0.290  0.899  0.519-   3 1.03
  28  0.710  0.101  0.481-   4 1.03
  29  0.790  0.601  0.481-   5 1.03
  30  0.210  0.399  0.519-   6 1.03
  31  0.710  0.399  0.981-   7 1.03
  32  0.290  0.601  0.019-   8 1.03
  33  0.046  0.282  0.095-   1 1.03
  34  0.954  0.718  0.905-   2 1.03
  35  0.454  0.718  0.594-   3 1.03
  36  0.546  0.282  0.405-   4 1.03
  37  0.954  0.782  0.406-   5 1.03
  38  0.046  0.218  0.594-   6 1.03
  39  0.546  0.218  0.905-   7 1.03
  40  0.454  0.782  0.095-   8 1.03

  LATTYP: Found a simple orthorhombic cell.
 ALAT       =     6.6280000000
 B/A-ratio  =     1.0343995172
 C/A-ratio  =     1.3800543150
  
  Lattice vectors:
  
 A1 = (   0.0000000000,  -6.6280000000,   0.0000000000)
 A2 = (   6.8560000000,   0.0000000000,   0.0000000000)
 A3 = (   0.0000000000,   0.0000000000,   9.1470000000)


Analysis of symmetry for initial positions (statically):
=====================================================================
 Subroutine PRICEL returns:
 Original cell was already a primitive cell.
 

 Routine SETGRP: Setting up the symmetry group for a 
 simple orthorhombic supercell.


 Subroutine GETGRP returns: Found  2 space group operations
 (whereof  1 operations were pure point group operations)
 out of a pool of  8 trial point group operations.


The static configuration has the point symmetry C_1 .
 The point group associated with its full space group is S_2 .


Analysis of symmetry for dynamics (positions and initial velocities):
=====================================================================
 Subroutine PRICEL returns:
 Original cell was already a primitive cell.
 

 Routine SETGRP: Setting up the symmetry group for a 
 simple orthorhombic supercell.


 Subroutine GETGRP returns: Found  2 space group operations
 (whereof  1 operations were pure point group operations)
 out of a pool of  8 trial point group operations.


The dynamic configuration has the point symmetry C_1 .
 The point group associated with its full space group is S_2 .


 Subroutine INISYM returns: Found  2 space group operations
 (whereof  1 operations are pure point group operations),
 and found     1 'primitive' translations


----------------------------------------------------------------------------------------

                                     Primitive cell                                     

  volume of cell :     415.6540

  direct lattice vectors                    reciprocal lattice vectors
     6.856000000  0.000000000  0.000000000     0.145857643  0.000000000  0.000000000
     0.000000000  6.628000000  0.000000000     0.000000000  0.150875075  0.000000000
     0.000000000  0.000000000  9.147000000     0.000000000  0.000000000  0.109325462

  length of vectors
     6.856000000  6.628000000  9.147000000     0.145857643  0.150875075  0.109325462

  position of ions in fractional coordinates (direct lattice)
     0.143930733  0.166145508  0.108317168
     0.856069582  0.833859835  0.891682563
     0.356072303  0.833861260  0.608317245
     0.643928580  0.166144304  0.391683022
     0.856072073  0.666146724  0.391683865
     0.143928031  0.333857930  0.608316301
     0.643928632  0.333857963  0.891682734
     0.356069295  0.666146835  0.108318911
     0.146468505  0.997190838  0.350258895
     0.853531025  0.002814810  0.649740955
     0.353532148  0.002805528  0.850254528
     0.646471688  0.997194472  0.149747710
     0.853534634  0.497189310  0.149747627
     0.146464762  0.502815926  0.850252307
     0.646467064  0.502805666  0.649737442
     0.353536455  0.497192848  0.350264085
     0.144521698  0.074337867  0.234776897
     0.855478271  0.925667762  0.765223147
     0.355478444  0.925664261  0.734779199
     0.644523667  0.074338457  0.265222176
     0.855477358  0.574336336  0.265217807
     0.144522328  0.425668646  0.734782160
     0.644517261  0.425667228  0.765217701
     0.355481008  0.574336118  0.234784595
     0.210262133  0.101169491  0.018649582
     0.789737434  0.898834450  0.981350445
     0.289744085  0.898832635  0.518655410
     0.710255280  0.101174648  0.481346209
     0.789743234  0.601175397  0.481350742
     0.210256233  0.398829556  0.518649257
     0.710259024  0.398836817  0.981350549
     0.289739792  0.601168672  0.018649451
     0.046049261  0.282408777  0.094501239
     0.953950919  0.717596302  0.905498169
     0.453943273  0.717602929  0.594498936
     0.546055938  0.282401728  0.405499684
     0.953950324  0.782407493  0.405501363
     0.046049081  0.217597828  0.594498680
     0.546043803  0.217592277  0.905497175
     0.453956166  0.782411587  0.094503019

  ion indices of the primitive-cell ions
   primitive index   ion index
                 1           1
                 2           2
                 3           3
                 4           4
                 5           5
                 6           6
                 7           7
                 8           8
                 9           9
                10          10
                11          11
                12          12
                13          13
                14          14
                15          15
                16          16
                17          17
                18          18
                19          19
                20          20
                21          21
                22          22
                23          23
                24          24
                25          25
                26          26
                27          27
                28          28
                29          29
                30          30
                31          31
                32          32
                33          33
                34          34
                35          35
                36          36
                37          37
                38          38
                39          39
                40          40

----------------------------------------------------------------------------------------



 KPOINTS: auto                                    

Automatic generation of k-mesh.
 Grid dimensions read from file:
 generate k-points for:    4    4    3

 Generating k-lattice:

  Cartesian coordinates                     Fractional coordinates (reciprocal lattice)
     0.036464411  0.000000000  0.000000000     0.250000000  0.000000000  0.000000000
     0.000000000  0.037718769  0.000000000     0.000000000  0.250000000  0.000000000
     0.000000000  0.000000000  0.036441821     0.000000000  0.000000000  0.333333333

  Length of vectors
     0.036464411  0.037718769  0.036441821

  Shift w.r.t. Gamma in fractional coordinates (k-lattice)
     0.000000000  0.000000000  0.000000000

 
 Subroutine IBZKPT returns following result:
 ===========================================
 
 Found     26 irreducible k-points:
 
 Following reciprocal coordinates:
            Coordinates               Weight
  0.000000  0.000000  0.000000      1.000000
  0.250000  0.000000  0.000000      2.000000
  0.500000  0.000000  0.000000      1.000000
  0.000000  0.250000  0.000000      2.000000
  0.250000  0.250000  0.000000      2.000000
 -0.250000  0.250000  0.000000      2.000000
  0.500000  0.250000  0.000000      2.000000
  0.000000  0.500000  0.000000      1.000000
  0.250000  0.500000  0.000000      2.000000
  0.500000  0.500000  0.000000      1.000000
  0.000000  0.000000  0.333333      2.000000
  0.250000  0.000000  0.333333      2.000000
  0.250000  0.000000 -0.333333      2.000000
  0.500000  0.000000  0.333333      2.000000
  0.000000  0.250000  0.333333      2.000000
  0.000000  0.250000 -0.333333      2.000000
  0.250000  0.250000  0.333333      2.000000
 -0.250000  0.250000 -0.333333      2.000000
  0.250000 -0.250000 -0.333333      2.000000
 -0.250000 -0.250000  0.333333      2.000000
  0.500000  0.250000  0.333333      2.000000
  0.500000  0.250000 -0.333333      2.000000
  0.000000  0.500000  0.333333      2.000000
  0.250000  0.500000  0.333333      2.000000
  0.250000  0.500000 -0.333333      2.000000
  0.500000  0.500000  0.333333      2.000000
 
 Following cartesian coordinates:
            Coordinates               Weight
  0.000000  0.000000  0.000000      1.000000
  0.036464  0.000000  0.000000      2.000000
  0.072929  0.000000  0.000000      1.000000
  0.000000  0.037719  0.000000      2.000000
  0.036464  0.037719  0.000000      2.000000
 -0.036464  0.037719  0.000000      2.000000
  0.072929  0.037719  0.000000      2.000000
  0.000000  0.075438  0.000000      1.000000
  0.036464  0.075438  0.000000      2.000000
  0.072929  0.075438  0.000000      1.000000
  0.000000  0.000000  0.036442      2.000000
  0.036464  0.000000  0.036442      2.000000
  0.036464  0.000000 -0.036442      2.000000
  0.072929  0.000000  0.036442      2.000000
  0.000000  0.037719  0.036442      2.000000
  0.000000  0.037719 -0.036442      2.000000
  0.036464  0.037719  0.036442      2.000000
 -0.036464  0.037719 -0.036442      2.000000
  0.036464 -0.037719 -0.036442      2.000000
 -0.036464 -0.037719  0.036442      2.000000
  0.072929  0.037719  0.036442      2.000000
  0.072929  0.037719 -0.036442      2.000000
  0.000000  0.075438  0.036442      2.000000
  0.036464  0.075438  0.036442      2.000000
  0.036464  0.075438 -0.036442      2.000000
  0.072929  0.075438  0.036442      2.000000
 


--------------------------------------------------------------------------------------------------------




 Dimension of arrays:
   k-points           NKPTS =     26   k-points in BZ     NKDIM =     26   number of bands    NBANDS=     88
   number of dos      NEDOS =    301   number of ions     NIONS =     40
   non local maximal  LDIM  =      4   non local SUM 2l+1 LMDIM =      8
   total plane-waves  NPLWV = 483840
   max r-space proj   IRMAX =      1   max aug-charges    IRDMAX=   8466
   dimension x,y,z NGX =    72 NGY =   70 NGZ =   96
   dimension x,y,z NGXF=   144 NGYF=  140 NGZF=  192
   support grid    NGXF=   144 NGYF=  140 NGZF=  192
   ions per type =              16   8  16
   NGX,Y,Z   is equivalent  to a cutoff of  17.46, 17.56, 17.45 a.u.
   NGXF,Y,Z  is equivalent  to a cutoff of  34.92, 35.12, 34.90 a.u.

 SYSTEM =  unknown system                          
 POSCAR =   N  C  H                                

 Startparameter for this run:
   NWRITE =      2    write-flag & timer
   PREC   = accura    normal or accurate (medium, high low for compatibility)
   ISTART =      0    job   : 0-new  1-cont  2-samecut
   ICHARG =      2    charge: 1-file 2-atom 10-const
   ISPIN  =      1    spin polarized calculation?
   LNONCOLLINEAR =      F non collinear calculations
   LSORBIT =      F    spin-orbit coupling
   INIWAV =      1    electr: 0-lowe 1-rand  2-diag
   LASPH  =      T    aspherical Exc in radial PAW
 Electronic Relaxation 1
   ENCUT  = 1000.0 eV  73.50 Ry    8.57 a.u.  17.68 17.09 23.58*2*pi/ulx,y,z
   ENINI  = 1000.0     initial cutoff
   ENAUG  = 1000.0 eV  augmentation charge cutoff
   NELM   =     60;   NELMIN=  2; NELMDL= -5     # of ELM steps 
   EDIFF  = 0.1E-06   stopping-criterion for ELM
   LREAL  =      F    real-space projection
   NLSPLINE    = F    spline interpolate recip. space projectors
   LCOMPAT=      F    compatible to vasp.4.4
   GGA_COMPAT  = T    GGA compatible to vasp.4.4-vasp.4.6
   LMAXPAW     = -100 max onsite density
   LMAXMIX     =    2 max onsite mixed and CHGCAR
   VOSKOWN=      0    Vosko Wilk Nusair interpolation
   ROPT   =    0.00000   0.00000   0.00000
 Ionic relaxation
   EDIFFG = 0.1E-05   stopping-criterion for IOM
   NSW    =      0    number of steps for IOM
   NBLOCK =      1;   KBLOCK =      1    inner block; outer block 
   IBRION =     -1    ionic relax: 0-MD 1-quasi-New 2-CG
   NFREE  =      0    steps in history (QN), initial steepest desc. (CG)
   ISIF   =      0    stress and relaxation
   IWAVPR =     10    prediction:  0-non 1-charg 2-wave 3-comb
   ISYM   =      2    0-nonsym 1-usesym 2-fastsym
   LCORR  =      T    Harris-Foulkes like correction to forces

   POTIM  = 0.5000    time-step for ionic-motion
   TEIN   =    0.0    initial temperature
   TEBEG  =    0.0;   TEEND  =   0.0 temperature during run
   SMASS  =  -3.00    Nose mass-parameter (am)
   estimated Nose-frequenzy (Omega)   =  0.10E-29 period in steps = 0.13E+47 mass=  -0.107E-26a.u.
   SCALEE = 1.0000    scale energy and forces
   NPACO  =    256;   APACO  = 10.0  distance and # of slots for P.C.
   PSTRESS=    0.0 pullay stress

  Mass of Ions in am
   POMASS =  14.00 12.01  1.00
  Ionic Valenz
   ZVAL   =   5.00  4.00  1.00
  Atomic Wigner-Seitz radii
   RWIGS  =  -1.00 -1.00 -1.00
  virtual crystal weights 
   VCA    =   1.00  1.00  1.00
   NELECT =     128.0000    total number of electrons
   NUPDOWN=      -1.0000    fix difference up-down

 DOS related values:
   EMIN   =  10.00;   EMAX   =-10.00  energy-range for DOS
   EFERMI =   0.00;   METHOD = LEGACY      
   ISMEAR =     0;   SIGMA  =   0.01  broadening in eV -4-tet -1-fermi 0-gaus

 Electronic relaxation 2 (details)
   IALGO  =     58    algorithm
   LDIAG  =      T    sub-space diagonalisation (order eigenvalues)
   LSUBROT=      F    optimize rotation matrix (better conditioning)
   TURBO    =      0    0=normal 1=particle mesh
   IRESTART =      0    0=no restart 2=restart with 2 vectors
   NREBOOT  =      0    no. of reboots
   NMIN     =      0    reboot dimension
   EREF     =   0.00    reference energy to select bands
   IMIX   =      4    mixing-type and parameters
     AMIX     =   0.40;   BMIX     =  1.00
     AMIX_MAG =   1.60;   BMIX_MAG =  1.00
     AMIN     =   0.10
     WC   =   100.;   INIMIX=   1;  MIXPRE=   1;  MAXMIX= -45

 Intra band minimization:
   WEIMIN = 0.0000     energy-eigenvalue tresh-hold
   EBREAK =  0.28E-09  absolut break condition
   DEPER  =   0.30     relativ break condition  

   TIME   =   0.40     timestep for ELM

  volume/ion in A,a.u.               =      10.39        70.12
  Fermi-wavevector in a.u.,A,eV,Ry     =   1.105522  2.089134 16.628761  1.222179
  Thomas-Fermi vector in A             =   2.242010

 Write flags
   LWAVE        =      F    write WAVECAR
   LDOWNSAMPLE  =      F    k-point downsampling of WAVECAR
   LCHARG       =      T    write CHGCAR
   LVTOT        =      F    write LOCPOT, total local potential
   LVHAR        =      F    write LOCPOT, Hartree potential only
   LELF         =      F    write electronic localiz. function (ELF)
   LORBIT       =      0    0 simple, 1 ext, 2 COOP (PROOUT), +10 PAW based schemes


 Dipole corrections
   LMONO  =      F    monopole corrections only (constant potential shift)
   LDIPOL =      F    correct potential (dipole corrections)
   IDIPOL =      0    1-x, 2-y, 3-z, 4-all directions 
   EPSILON=  1.0000000 bulk dielectric constant

 Exchange correlation treatment:
   GGA     =    RE    GGA type
   LEXCH   =    40    internal setting for exchange type
   LIBXC   =     F    Libxc                    
   VOSKOWN =     0    Vosko Wilk Nusair interpolation
   LHFCALC =     F    Hartree Fock is set to
   LHFONE  =     F    Hartree Fock one center treatment
   AEXX    =    0.0000 exact exchange contribution

 vdW DFT:
   LUSE_VDW   =     T    switch on vdW DFT
   IVDW_NL    =     1    kernel type
   LSPIN_VDW  =     F    use spin-polarized vdW DFT
   Zab_VDW    =-.8491    correlation parameter
   PARAM1     =0.1234
   PARAM2     =1.0000
   PARAM3     =0.0000
   -- rVV10 --
   BPARAM     = 6.3000
   CPARAM     = 0.0093

 Linear response parameters
   LEPSILON=     F    determine dielectric tensor
   LRPA    =     F    only Hartree local field effects (RPA)
   LNABLA  =     F    use nabla operator in PAW spheres
   LVEL    =     F    velocity operator in full k-point grid
   CSHIFT  =0.1000    complex shift for real part using Kramers Kronig
   OMEGAMAX=  -1.0    maximum frequency
   DEG_THRESHOLD= 0.2000000E-02 threshold for treating states as degnerate
   RTIME   =   -0.100 relaxation time in fs
  (WPLASMAI=    0.000 imaginary part of plasma frequency in eV, 0.658/RTIME)
   DFIELD  = 0.0000000 0.0000000 0.0000000 field for delta impulse in time

  Optional k-point grid parameters
   LKPOINTS_OPT  =     F    use optional k-point grid
   KPOINTS_OPT_MODE=     1    mode for optional k-point grid

 Orbital magnetization related:
   ORBITALMAG=     F  switch on orbital magnetization
   LCHIMAG   =     F  perturbation theory with respect to B field
   DQ        =  0.001000  dq finite difference perturbation B field
   LLRAUG    =     F  two centre corrections for induced B field
   LBONE     =     F  B-component reconstruction in AE one-centre
   LVGVCALC  =     T  calculate vGv susceptibility
   LVGVAPPL  =     F  apply vGv susceptibility instead of pGv for G=0

 Random number generation:
   RANDOM_GENERATOR = DEFAULT
   PCG_SEED         = not used


--------------------------------------------------------------------------------------------------------


 Static calculation
 charge density and potential will be updated during run
 non-spin polarized calculation
 Conjugate gradient for all bands (Freysoldt, et al. PRB 79, 241103 (2009))
 preconditioned conjugated gradient                                        
 perform sub-space diagonalisation
    before iterative eigenvector-optimisation
 modified Broyden-mixing scheme, WC =      100.0
 initial mixing is a Kerker type mixing with AMIX =  0.4000 and BMIX =      1.0000
 Hartree-type preconditioning will be used
 using additional bands           24
 reciprocal scheme for non local part
 use partial core corrections
 no Harris-corrections to forces 
 use gradient corrections 
 use of overlap-Matrix (Vanderbilt PP)
 Gauss-broadening in eV      SIGMA  =   0.01


--------------------------------------------------------------------------------------------------------


  energy-cutoff  :     1000.00
  volume of cell :      415.65
      direct lattice vectors                 reciprocal lattice vectors
     6.856000000  0.000000000  0.000000000     0.145857643  0.000000000  0.000000000
     0.000000000  6.628000000  0.000000000     0.000000000  0.150875075  0.000000000
     0.000000000  0.000000000  9.147000000     0.000000000  0.000000000  0.109325462

  length of vectors
     6.856000000  6.628000000  9.147000000     0.145857643  0.150875075  0.109325462



 k-points in units of 2pi/SCALE and weight: auto                                    
   0.00000000  0.00000000  0.00000000       0.021
   0.03646441  0.00000000  0.00000000       0.042
   0.07292882  0.00000000  0.00000000       0.021
   0.00000000  0.03771877  0.00000000       0.042
   0.03646441  0.03771877  0.00000000       0.042
  -0.03646441  0.03771877  0.00000000       0.042
   0.07292882  0.03771877  0.00000000       0.042
   0.00000000  0.07543754  0.00000000       0.021
   0.03646441  0.07543754  0.00000000       0.042
   0.07292882  0.07543754  0.00000000       0.021
   0.00000000  0.00000000  0.03644182       0.042
   0.03646441  0.00000000  0.03644182       0.042
   0.03646441  0.00000000 -0.03644182       0.042
   0.07292882  0.00000000  0.03644182       0.042
   0.00000000  0.03771877  0.03644182       0.042
   0.00000000  0.03771877 -0.03644182       0.042
   0.03646441  0.03771877  0.03644182       0.042
  -0.03646441  0.03771877 -0.03644182       0.042
   0.03646441 -0.03771877 -0.03644182       0.042
  -0.03646441 -0.03771877  0.03644182       0.042
   0.07292882  0.03771877  0.03644182       0.042
   0.07292882  0.03771877 -0.03644182       0.042
   0.00000000  0.07543754  0.03644182       0.042
   0.03646441  0.07543754  0.03644182       0.042
   0.03646441  0.07543754 -0.03644182       0.042
   0.07292882  0.07543754  0.03644182       0.042

 k-points in reciprocal lattice and weights: auto                                    
   0.00000000  0.00000000  0.00000000       0.021
   0.25000000  0.00000000  0.00000000       0.042
   0.50000000  0.00000000  0.00000000       0.021
   0.00000000  0.25000000  0.00000000       0.042
   0.25000000  0.25000000  0.00000000       0.042
  -0.25000000  0.25000000  0.00000000       0.042
   0.50000000  0.25000000  0.00000000       0.042
   0.00000000  0.50000000  0.00000000       0.021
   0.25000000  0.50000000  0.00000000       0.042
   0.50000000  0.50000000  0.00000000       0.021
   0.00000000  0.00000000  0.33333333       0.042
   0.25000000  0.00000000  0.33333333       0.042
   0.25000000  0.00000000 -0.33333333       0.042
   0.50000000  0.00000000  0.33333333       0.042
   0.00000000  0.25000000  0.33333333       0.042
   0.00000000  0.25000000 -0.33333333       0.042
   0.25000000  0.25000000  0.33333333       0.042
  -0.25000000  0.25000000 -0.33333333       0.042
   0.25000000 -0.25000000 -0.33333333       0.042
  -0.25000000 -0.25000000  0.33333333       0.042
   0.50000000  0.25000000  0.33333333       0.042
   0.50000000  0.25000000 -0.33333333       0.042
   0.00000000  0.50000000  0.33333333       0.042
   0.25000000  0.50000000  0.33333333       0.042
   0.25000000  0.50000000 -0.33333333       0.042
   0.50000000  0.50000000  0.33333333       0.042

 position of ions in fractional coordinates (direct lattice) 
   0.14393073  0.16614551  0.10831717
   0.85606958  0.83385984  0.89168256
   0.35607230  0.83386126  0.60831724
   0.64392858  0.16614430  0.39168302
   0.85607207  0.66614672  0.39168387
   0.14392803  0.33385793  0.60831630
   0.64392863  0.33385796  0.89168273
   0.35606930  0.66614684  0.10831891
   0.14646851  0.99719084  0.35025889
   0.85353103  0.00281481  0.64974096
   0.35353215  0.00280553  0.85025453
   0.64647169  0.99719447  0.14974771
   0.85353463  0.49718931  0.14974763
   0.14646476  0.50281593  0.85025231
   0.64646706  0.50280567  0.64973744
   0.35353645  0.49719285  0.35026408
   0.14452170  0.07433787  0.23477690
   0.85547827  0.92566776  0.76522315
   0.35547844  0.92566426  0.73477920
   0.64452367  0.07433846  0.26522218
   0.85547736  0.57433634  0.26521781
   0.14452233  0.42566865  0.73478216
   0.64451726  0.42566723  0.76521770
   0.35548101  0.57433612  0.23478460
   0.21026213  0.10116949  0.01864958
   0.78973743  0.89883445  0.98135044
   0.28974409  0.89883264  0.51865541
   0.71025528  0.10117465  0.48134621
   0.78974323  0.60117540  0.48135074
   0.21025623  0.39882956  0.51864926
   0.71025902  0.39883682  0.98135055
   0.28973979  0.60116867  0.01864945
   0.04604926  0.28240878  0.09450124
   0.95395092  0.71759630  0.90549817
   0.45394327  0.71760293  0.59449894
   0.54605594  0.28240173  0.40549968
   0.95395032  0.78240749  0.40550136
   0.04604908  0.21759783  0.59449868
   0.54604380  0.21759228  0.90549718
   0.45395617  0.78241159  0.09450302

 position of ions in cartesian coordinates  (Angst):
   0.98678911  1.10121243  0.99077714
   5.86921305  5.52682299  8.15622040
   2.44123171  5.52683243  5.56427784
   4.41477435  1.10120445  3.58272460
   5.86923013  4.41522049  3.58273232
   0.98677058  2.21281036  5.56426921
   4.41477470  2.21281058  8.15622196
   2.44121109  4.41522122  0.99079308
   1.00418807  6.60938087  3.20381811
   5.85180871  0.01865656  5.94318052
   2.42381641  0.01859504  7.77727817
   4.43220989  6.60940496  1.36974230
   5.85183345  3.29537075  1.36974155
   1.00416241  3.33266396  7.77725785
   4.43217819  3.33259595  5.94314838
   2.42384593  3.29539420  3.20386558
   0.99084076  0.49271138  2.14750428
   5.86515902  6.13532592  6.99949613
   2.43716021  6.13530272  6.72102533
   4.41885426  0.49271529  2.42598724
   5.86515277  3.80670123  2.42594728
   0.99084508  2.82133178  6.72105241
   4.41881034  2.82132239  6.99944631
   2.43717779  3.80669979  2.14757469
   1.44155719  0.67055139  0.17058773
   5.41443985  5.95747474  8.97641252
   1.98648545  5.95746271  4.74414103
   4.86951020  0.67058557  4.40287378
   5.41447961  3.98459053  4.40291523
   1.44151673  2.64344230  4.74408475
   4.86953587  2.64349042  8.97641347
   1.98645601  3.98454595  0.17058653
   0.31571373  1.87180537  0.86440283
   6.54028750  4.75622829  8.28259175
   3.11223508  4.75627221  5.43788177
   3.74375951  1.87175865  3.70910561
   6.54028342  5.18579686  3.70912097
   0.31571250  1.44223840  5.43787943
   3.74367631  1.44220161  8.28258266
   3.11232348  5.18582400  0.86441911



--------------------------------------------------------------------------------------------------------


 k-point   1 :   0.0000 0.0000 0.0000  plane waves:   29863
 k-point   2 :   0.2500 0.0000 0.0000  plane waves:   29873
 k-point   3 :   0.5000 0.0000 0.0000  plane waves:   29848
 k-point   4 :   0.0000 0.2500 0.0000  plane waves:   29860
 k-point   5 :   0.2500 0.2500 0.0000  plane waves:   29833
 k-point   6 :  -0.2500 0.2500 0.0000  plane waves:   29833
 k-point   7 :   0.5000 0.2500 0.0000  plane waves:   29838
 k-point   8 :   0.0000 0.5000 0.0000  plane waves:   29882
 k-point   9 :   0.2500 0.5000 0.0000  plane waves:   29838
 k-point  10 :   0.5000 0.5000 0.0000  plane waves:   29820
 k-point  11 :   0.0000 0.0000 0.3333  plane waves:   29861
 k-point  12 :   0.2500 0.0000 0.3333  plane waves:   29838
 k-point  13 :   0.2500 0.0000-0.3333  plane waves:   29838
 k-point  14 :   0.5000 0.0000 0.3333  plane waves:   29810
 k-point  15 :   0.0000 0.2500 0.3333  plane waves:   29825
 k-point  16 :   0.0000 0.2500-0.3333  plane waves:   29825
 k-point  17 :   0.2500 0.2500 0.3333  plane waves:   29837
 k-point  18 :  -0.2500 0.2500-0.3333  plane waves:   29837
 k-point  19 :   0.2500-0.2500-0.3333  plane waves:   29837
 k-point  20 :  -0.2500-0.2500 0.3333  plane waves:   29837
 k-point  21 :   0.5000 0.2500 0.3333  plane waves:   29848
 k-point  22 :   0.5000 0.2500-0.3333  plane waves:   29848
 k-point  23 :   0.0000 0.5000 0.3333  plane waves:   29840
 k-point  24 :   0.2500 0.5000 0.3333  plane waves:   29846
 k-point  25 :   0.2500 0.5000-0.3333  plane waves:   29846
 k-point  26 :   0.5000 0.5000 0.3333  plane waves:   29832

 maximum and minimum number of plane-waves per node :       495      444

 maximum number of plane-waves:     29882
 maximum index in each direction: 
   IXMAX=   17   IYMAX=   17   IZMAX=   23
   IXMIN=  -18   IYMIN=  -17   IZMIN=  -23


 parallel 3D FFT for wavefunctions:
    minimum data exchange during FFTs selected (reduces bandwidth)
 parallel 3D FFT for charge:
    minimum data exchange during FFTs selected (reduces bandwidth)


 total amount of memory used by VASP MPI-rank0    49410. kBytes
=======================================================================

   base      :      30000. kBytes
   nonl-proj :       2658. kBytes
   fftplans  :       1300. kBytes
   grid      :       2273. kBytes
   one-center:          3. kBytes
   wavefun   :      13176. kBytes

     INWAV:  cpu time      0.0001: real time      0.0002
 Broyden mixing: mesh for mixing (old mesh)
   NGX = 35   NGY = 35   NGZ = 47
  (NGX  =144   NGY  =140   NGZ  =192)
  gives a total of  57575 points

 initial charge density was supplied:
 charge density of overlapping atoms calculated
 number of electron     128.0000000 magnetization 
 keeping initial charge density in first step


--------------------------------------------------------------------------------------------------------


 Maximum index for augmentation-charges          123 (set IRDMAX)


--------------------------------------------------------------------------------------------------------


 First call to EWALD:  gamma=   0.238
 Maximum number of real-space cells 3x 3x 2
 Maximum number of reciprocal cells 3x 2x 3

    FEWALD:  cpu time      0.0022: real time      0.0022


--------------------------------------- Ionic step        1  -------------------------------------------




--------------------------------------- Iteration      1(   1)  ---------------------------------------


vdW kernel read from vdw_kernel.bindat
  0.0000  0.2424  0.5071  0.7962  1.1119  1.4567  1.8333  2.2446  2.6937  3.1842
  3.7199  4.3049  4.9438  5.6415  6.4036  7.2358  8.1446  9.1372 10.2212 11.4050
 12.6979 14.1099 15.6519 17.3360 19.1751 21.1837 23.3773 25.7729 28.3892 31.2465
 34.3669 37.7748 41.4965 45.5611 50.0000

    POTLOK:  cpu time      1.3886: real time      1.3897
    SETDIJ:  cpu time      0.0703: real time      0.0706
    TRIAL :  cpu time      2.8491: real time      2.8516
    CORREC:  cpu time      0.0037: real time      0.0037
    --------------------------------------------
      LOOP:  cpu time      4.3163: real time      4.3202

 eigenvalue-minimisations  :  4576
 total energy-change (2. order) : 0.1173494E+04  (-0.9483254E+04)
 number of electron     128.0000000 magnetization 
 augmentation part      128.0000000 magnetization 

 Free energy of the ion-electron system (eV)
  ---------------------------------------------------
  alpha Z        PSCENC =       118.91601032
  Ewald energy   TEWEN  =     -3118.12717471
  -Hartree energ DENC   =     -1912.96877498
  -exchange      EXHF   =         0.00000000
  -V(xc)+E(xc)   XCENC  =       340.96885549
  PAW double counting   =      4265.67924483    -4193.70771892
  entropy T*S    EENTRO =        -0.00091788
  eigenvalues    EBANDS =       -11.08976608
  atomic energy  EATOM  =      5683.82407406
  ---------------------------------------------------
  free energy    TOTEN  =      1173.49383212 eV

  energy without entropy =     1173.49475000  energy(sigma->0) =     1173.49429106


--------------------------------------------------------------------------------------------------------




--------------------------------------- Iteration      1(   2)  ---------------------------------------


    TRIAL :  cpu time      3.3821: real time      3.3834
    CORREC:  cpu time      0.0004: real time      0.0004
    --------------------------------------------
      LOOP:  cpu time      3.4088: real time      3.4147

 eigenvalue-minimisations  :  6040
 total energy-change (2. order) :-0.1222537E+04  (-0.1168763E+04)
 number of electron     128.0000000 magnetization 
 augmentation part      128.0000000 magnetization 

 Free energy of the ion-electron system (eV)
  ---------------------------------------------------
  alpha Z        PSCENC =       118.91601032
  Ewald energy   TEWEN  =     -3118.12717471
  -Hartree energ DENC   =     -1912.96877498
  -exchange      EXHF   =         0.00000000
  -V(xc)+E(xc)   XCENC  =       340.96885549
  PAW double counting   =      4265.67924483    -4193.70771892
  entropy T*S    EENTRO =        -0.00000000
  eigenvalues    EBANDS =     -1233.62773852
  atomic energy  EATOM  =      5683.82407406
  ---------------------------------------------------
  free energy    TOTEN  =       -49.04322244 eV

  energy without entropy =      -49.04322244  energy(sigma->0) =      -49.04322244


--------------------------------------------------------------------------------------------------------




--------------------------------------- Iteration      1(   3)  ---------------------------------------


    TRIAL :  cpu time      3.1760: real time      3.1780
    CORREC:  cpu time      0.0005: real time      0.0005
    --------------------------------------------
      LOOP:  cpu time      3.1916: real time      3.2086

 eigenvalue-minimisations  :  5560
 total energy-change (2. order) :-0.1896796E+03  (-0.1874875E+03)
 number of electron     128.0000000 magnetization 
 augmentation part      128.0000000 magnetization 

 Free energy of the ion-electron system (eV)
  ---------------------------------------------------
  alpha Z        PSCENC =       118.91601032
  Ewald energy   TEWEN  =     -3118.12717471
  -Hartree energ DENC   =     -1912.96877498
  -exchange      EXHF   =         0.00000000
  -V(xc)+E(xc)   XCENC  =       340.96885549
  PAW double counting   =      4265.67924483    -4193.70771892
  entropy T*S    EENTRO =        -0.00000000
  eigenvalues    EBANDS =     -1423.30735472
  atomic energy  EATOM  =      5683.82407406
  ---------------------------------------------------
  free energy    TOTEN  =      -238.72283864 eV

  energy without entropy =     -238.72283864  energy(sigma->0) =     -238.72283864


--------------------------------------------------------------------------------------------------------




--------------------------------------- Iteration      1(   4)  ---------------------------------------


    TRIAL :  cpu time      3.2350: real time      3.2366
    CORREC:  cpu time      0.0004: real time      0.0004
    --------------------------------------------
      LOOP:  cpu time      3.2640: real time      3.2659

 eigenvalue-minimisations  :  5624
 total energy-change (2. order) :-0.7829934E+01  (-0.7750288E+01)
 number of electron     128.0000000 magnetization 
 augmentation part      128.0000000 magnetization 

 Free energy of the ion-electron system (eV)
  ---------------------------------------------------
  alpha Z        PSCENC =       118.91601032
  Ewald energy   TEWEN  =     -3118.12717471
  -Hartree energ DENC   =     -1912.96877498
  -exchange      EXHF   =         0.00000000
  -V(xc)+E(xc)   XCENC  =       340.96885549
  PAW double counting   =      4265.67924483    -4193.70771892
  entropy T*S    EENTRO =        -0.00000000
  eigenvalues    EBANDS =     -1431.13728911
  atomic energy  EATOM  =      5683.82407406
  ---------------------------------------------------
  free energy    TOTEN  =      -246.55277303 eV

  energy without entropy =     -246.55277303  energy(sigma->0) =     -246.55277303


--------------------------------------------------------------------------------------------------------




--------------------------------------- Iteration      1(   5)  ---------------------------------------


    TRIAL :  cpu time      3.2710: real time      3.2725
    CORREC:  cpu time      0.0003: real time      0.0003
    CHARGE:  cpu time      0.2078: real time      0.2091
    --------------------------------------------
      LOOP:  cpu time      3.4950: real time      3.5112

 eigenvalue-minimisations  :  5808
 total energy-change (2. order) :-0.3248727E+00  (-0.3243583E+00)
 number of electron     128.0000000 magnetization 
 augmentation part       -0.2397684 magnetization 

 Free energy of the ion-electron system (eV)
  ---------------------------------------------------
  alpha Z        PSCENC =       118.91601032
  Ewald energy   TEWEN  =     -3118.12717471
  -Hartree energ DENC   =     -1912.96877498
  -exchange      EXHF   =         0.00000000
  -V(xc)+E(xc)   XCENC  =       340.96885549
  PAW double counting   =      4265.67924483    -4193.70771892
  entropy T*S    EENTRO =        -0.00000000
  eigenvalues    EBANDS =     -1431.46216177
  atomic energy  EATOM  =      5683.82407406
  ---------------------------------------------------
  free energy    TOTEN  =      -246.87764569 eV

  energy without entropy =     -246.87764569  energy(sigma->0) =     -246.87764569


--------------------------------------------------------------------------------------------------------




--------------------------------------- Iteration      1(   6)  ---------------------------------------


    POTLOK:  cpu time      0.7527: real time      0.7534
    SETDIJ:  cpu time      0.0658: real time      0.0658
    TRIAL :  cpu time      1.6420: real time      1.6434
    CORREC:  cpu time      1.7323: real time      1.7334
    CHARGE:  cpu time      0.1783: real time      0.1784
    --------------------------------------------
      LOOP:  cpu time      4.3946: real time      4.4046

 eigenvalue-minimisations  :     0
 total energy-change (2. order) : 0.5669085E+02  (-0.2732975E+02)
 number of electron     128.0000000 magnetization 
 augmentation part       -0.4119577 magnetization 

 Free energy of the ion-electron system (eV)
  ---------------------------------------------------
  alpha Z        PSCENC =       118.91601032
  Ewald energy   TEWEN  =     -3118.12717471
  -Hartree energ DENC   =     -2627.56172450
  -exchange      EXHF   =         0.00000000
  -V(xc)+E(xc)   XCENC  =       388.02604535
  PAW double counting   =     38953.49070554   -38888.74993258
  entropy T*S    EENTRO =        -0.00000000
  eigenvalues    EBANDS =      -700.00479776
  atomic energy  EATOM  =      5683.82407406
  ---------------------------------------------------
  free energy    TOTEN  =      -190.18679428 eV

  energy without entropy =     -190.18679428  energy(sigma->0) =     -190.18679428


--------------------------------------------------------------------------------------------------------




--------------------------------------- Iteration      1(   7)  ---------------------------------------


    POTLOK:  cpu time      0.7487: real time      0.7490
    SETDIJ:  cpu time      0.0658: real time      0.0658
    TRIAL :  cpu time      1.6019: real time      1.6024
    CORREC:  cpu time      1.7210: real time      1.7217
    CHARGE:  cpu time      0.1781: real time      0.1781
    --------------------------------------------
      LOOP:  cpu time      4.3460: real time      4.3477

 eigenvalue-minimisations  :     0
 total energy-change (2. order) :-0.2735505E+02  (-0.2510333E+01)
 number of electron     128.0000000 magnetization 
 augmentation part       -0.4984721 magnetization 

 Free energy of the ion-electron system (eV)
  ---------------------------------------------------
  alpha Z        PSCENC =       118.91601032
  Ewald energy   TEWEN  =     -3118.12717471
  -Hartree energ DENC   =     -2282.26228991
  -exchange      EXHF   =         0.00000000
  -V(xc)+E(xc)   XCENC  =       365.58747362
  PAW double counting   =     53677.80787860   -53609.83974620
  entropy T*S    EENTRO =        -0.00000000
  eigenvalues    EBANDS =     -1053.44807439
  atomic energy  EATOM  =      5683.82407406
  ---------------------------------------------------
  free energy    TOTEN  =      -217.54184861 eV

  energy without entropy =     -217.54184861  energy(sigma->0) =     -217.54184861


--------------------------------------------------------------------------------------------------------




--------------------------------------- Iteration      1(   8)  ---------------------------------------


    POTLOK:  cpu time      0.7474: real time      0.7477
    SETDIJ:  cpu time      0.0668: real time      0.0668
    TRIAL :  cpu time      1.5987: real time      1.5993
    CORREC:  cpu time      1.7313: real time      1.7319
    CHARGE:  cpu time      0.2002: real time      0.2002
    --------------------------------------------
      LOOP:  cpu time      4.3574: real time      4.3772

 eigenvalue-minimisations  :     0
 total energy-change (2. order) :-0.2512506E+01  (-0.7152505E+00)
 number of electron     128.0000000 magnetization 
 augmentation part       -0.4830315 magnetization 

 Free energy of the ion-electron system (eV)
  ---------------------------------------------------
  alpha Z        PSCENC =       118.91601032
  Ewald energy   TEWEN  =     -3118.12717471
  -Hartree energ DENC   =     -2273.37625856
  -exchange      EXHF   =         0.00000000
  -V(xc)+E(xc)   XCENC  =       365.40226546
  PAW double counting   =     57248.95688462   -57180.60389888
  entropy T*S    EENTRO =        -0.00000000
  eigenvalues    EBANDS =     -1065.04625662
  atomic energy  EATOM  =      5683.82407406
  ---------------------------------------------------
  free energy    TOTEN  =      -220.05435431 eV

  energy without entropy =     -220.05435431  energy(sigma->0) =     -220.05435431


--------------------------------------------------------------------------------------------------------




--------------------------------------- Iteration      1(   9)  ---------------------------------------


    POTLOK:  cpu time      0.8018: real time      0.8021
    SETDIJ:  cpu time      0.0667: real time      0.0667
    TRIAL :  cpu time      1.6293: real time      1.6299
    CORREC:  cpu time      1.7322: real time      1.7330
    CHARGE:  cpu time      0.1793: real time      0.1793
    --------------------------------------------
      LOOP:  cpu time      4.4227: real time      4.4416

 eigenvalue-minimisations  :     0
 total energy-change (2. order) :-0.7113602E+00  (-0.2094717E+00)
 number of electron     128.0000000 magnetization 
 augmentation part       -0.4663670 magnetization 

 Free energy of the ion-electron system (eV)
  ---------------------------------------------------
  alpha Z        PSCENC =       118.91601032
  Ewald energy   TEWEN  =     -3118.12717471
  -Hartree energ DENC   =     -2268.08463438
  -exchange      EXHF   =         0.00000000
  -V(xc)+E(xc)   XCENC  =       365.26611660
  PAW double counting   =     57575.72654592   -57507.30147364
  entropy T*S    EENTRO =        -0.00000000
  eigenvalues    EBANDS =     -1070.98517863
  atomic energy  EATOM  =      5683.82407406
  ---------------------------------------------------
  free energy    TOTEN  =      -220.76571446 eV

  energy without entropy =     -220.76571446  energy(sigma->0) =     -220.76571446


--------------------------------------------------------------------------------------------------------




--------------------------------------- Iteration      1(  10)  ---------------------------------------


    POTLOK:  cpu time      0.7489: real time      0.7492
    SETDIJ:  cpu time      0.0658: real time      0.0658
    TRIAL :  cpu time      1.5959: real time      1.5962
    CORREC:  cpu time      1.7236: real time      1.7245
    CHARGE:  cpu time      0.1784: real time      0.1784
    --------------------------------------------
      LOOP:  cpu time      4.3259: real time      4.3442

 eigenvalue-minimisations  :     0
 total energy-change (2. order) :-0.2085862E+00  (-0.5454430E-01)
 number of electron     128.0000000 magnetization 
 augmentation part       -0.4622613 magnetization 

 Free energy of the ion-electron system (eV)
  ---------------------------------------------------
  alpha Z        PSCENC =       118.91601032
  Ewald energy   TEWEN  =     -3118.12717471
  -Hartree energ DENC   =     -2265.27330469
  -exchange      EXHF   =         0.00000000
  -V(xc)+E(xc)   XCENC  =       365.03275372
  PAW double counting   =     56309.23033128   -56240.84455425
  entropy T*S    EENTRO =        -0.00000000
  eigenvalues    EBANDS =     -1073.73243638
  atomic energy  EATOM  =      5683.82407406
  ---------------------------------------------------
  free energy    TOTEN  =      -220.97430066 eV

  energy without entropy =     -220.97430066  energy(sigma->0) =     -220.97430066


--------------------------------------------------------------------------------------------------------




--------------------------------------- Iteration      1(  11)  ---------------------------------------


    POTLOK:  cpu time      0.7450: real time      0.7453
    SETDIJ:  cpu time      0.0659: real time      0.0659
    TRIAL :  cpu time      1.5945: real time      1.5953
    CORREC:  cpu time      1.7187: real time      1.7194
    CHARGE:  cpu time      0.1777: real time      0.1779
    --------------------------------------------
      LOOP:  cpu time      4.3196: real time      4.3348

 eigenvalue-minimisations  :     0
 total energy-change (2. order) :-0.5445309E-01  (-0.1278021E-01)
 number of electron     128.0000000 magnetization 
 augmentation part       -0.4623233 magnetization 

 Free energy of the ion-electron system (eV)
  ---------------------------------------------------
  alpha Z        PSCENC =       118.91601032
  Ewald energy   TEWEN  =     -3118.12717471
  -Hartree energ DENC   =     -2264.94939080
  -exchange      EXHF   =         0.00000000
  -V(xc)+E(xc)   XCENC  =       364.95814919
  PAW double counting   =     55601.80941201   -55533.45747744
  entropy T*S    EENTRO =        -0.00000000
  eigenvalues    EBANDS =     -1074.00235639
  atomic energy  EATOM  =      5683.82407406
  ---------------------------------------------------
  free energy    TOTEN  =      -221.02875375 eV

  energy without entropy =     -221.02875375  energy(sigma->0) =     -221.02875375


--------------------------------------------------------------------------------------------------------




--------------------------------------- Iteration      1(  12)  ---------------------------------------


    POTLOK:  cpu time      0.7492: real time      0.7493
    SETDIJ:  cpu time      0.0660: real time      0.0660
    TRIAL :  cpu time      1.5971: real time      1.5977
    CORREC:  cpu time      1.7304: real time      1.7312
    CHARGE:  cpu time      0.2067: real time      0.2067
    --------------------------------------------
      LOOP:  cpu time      4.3799: real time      4.3815

 eigenvalue-minimisations  :     0
 total energy-change (2. order) :-0.1277008E-01  (-0.3060669E-02)
 number of electron     128.0000000 magnetization 
 augmentation part       -0.4633850 magnetization 

 Free energy of the ion-electron system (eV)
  ---------------------------------------------------
  alpha Z        PSCENC =       118.91601032
  Ewald energy   TEWEN  =     -3118.12717471
  -Hartree energ DENC   =     -2264.00207896
  -exchange      EXHF   =         0.00000000
  -V(xc)+E(xc)   XCENC  =       364.88626447
  PAW double counting   =     55572.66819704   -55504.31473172
  entropy T*S    EENTRO =        -0.00000000
  eigenvalues    EBANDS =     -1074.89208433
  atomic energy  EATOM  =      5683.82407406
  ---------------------------------------------------
  free energy    TOTEN  =      -221.04152383 eV

  energy without entropy =     -221.04152383  energy(sigma->0) =     -221.04152383


--------------------------------------------------------------------------------------------------------




--------------------------------------- Iteration      1(  13)  ---------------------------------------


    POTLOK:  cpu time      0.7988: real time      0.7991
    SETDIJ:  cpu time      0.0671: real time      0.0671
    TRIAL :  cpu time      1.5972: real time      1.5975
    CORREC:  cpu time      1.7149: real time      1.7159
    CHARGE:  cpu time      0.1787: real time      0.1787
    --------------------------------------------
      LOOP:  cpu time      4.3695: real time      4.3898

 eigenvalue-minimisations  :     0
 total energy-change (2. order) :-0.3055298E-02  (-0.6741298E-03)
 number of electron     128.0000000 magnetization 
 augmentation part       -0.4639049 magnetization 

 Free energy of the ion-electron system (eV)
  ---------------------------------------------------
  alpha Z        PSCENC =       118.91601032
  Ewald energy   TEWEN  =     -3118.12717471
  -Hartree energ DENC   =     -2264.01784786
  -exchange      EXHF   =         0.00000000
  -V(xc)+E(xc)   XCENC  =       364.88939353
  PAW double counting   =     55634.74205464   -55566.38725316
  entropy T*S    EENTRO =        -0.00000000
  eigenvalues    EBANDS =     -1074.88383594
  atomic energy  EATOM  =      5683.82407406
  ---------------------------------------------------
  free energy    TOTEN  =      -221.04457913 eV

  energy without entropy =     -221.04457913  energy(sigma->0) =     -221.04457913


--------------------------------------------------------------------------------------------------------




--------------------------------------- Iteration      1(  14)  ---------------------------------------


    POTLOK:  cpu time      0.7481: real time      0.7484
    SETDIJ:  cpu time      0.0770: real time      0.0770
    TRIAL :  cpu time      1.6088: real time      1.6094
    CORREC:  cpu time      1.7191: real time      1.7199
    CHARGE:  cpu time      0.1783: real time      0.1783
    --------------------------------------------
      LOOP:  cpu time      4.3445: real time      4.3645

 eigenvalue-minimisations  :     0
 total energy-change (2. order) :-0.6732418E-03  (-0.1672620E-03)
 number of electron     128.0000000 magnetization 
 augmentation part       -0.4639573 magnetization 

 Free energy of the ion-electron system (eV)
  ---------------------------------------------------
  alpha Z        PSCENC =       118.91601032
  Ewald energy   TEWEN  =     -3118.12717471
  -Hartree energ DENC   =     -2263.91893108
  -exchange      EXHF   =         0.00000000
  -V(xc)+E(xc)   XCENC  =       364.88014682
  PAW double counting   =     55643.90939420   -55575.55264186
  entropy T*S    EENTRO =        -0.00000000
  eigenvalues    EBANDS =     -1074.97613012
  atomic energy  EATOM  =      5683.82407406
  ---------------------------------------------------
  free energy    TOTEN  =      -221.04525237 eV

  energy without entropy =     -221.04525237  energy(sigma->0) =     -221.04525237


--------------------------------------------------------------------------------------------------------




--------------------------------------- Iteration      1(  15)  ---------------------------------------


    POTLOK:  cpu time      0.7472: real time      0.7472
    SETDIJ:  cpu time      0.0656: real time      0.0658
    TRIAL :  cpu time      1.6022: real time      1.6025
    CORREC:  cpu time      1.7225: real time      1.7233
    CHARGE:  cpu time      0.1796: real time      0.1796
    --------------------------------------------
      LOOP:  cpu time      4.3480: real time      4.3496

 eigenvalue-minimisations  :     0
 total energy-change (2. order) :-0.1671820E-03  (-0.4223663E-04)
 number of electron     128.0000000 magnetization 
 augmentation part       -0.4639334 magnetization 

 Free energy of the ion-electron system (eV)
  ---------------------------------------------------
  alpha Z        PSCENC =       118.91601032
  Ewald energy   TEWEN  =     -3118.12717471
  -Hartree energ DENC   =     -2263.97795402
  -exchange      EXHF   =         0.00000000
  -V(xc)+E(xc)   XCENC  =       364.88425041
  PAW double counting   =     55624.68294669   -55556.32707482
  entropy T*S    EENTRO =        -0.00000000
  eigenvalues    EBANDS =     -1074.92049749
  atomic energy  EATOM  =      5683.82407406
  ---------------------------------------------------
  free energy    TOTEN  =      -221.04541955 eV

  energy without entropy =     -221.04541955  energy(sigma->0) =     -221.04541955


--------------------------------------------------------------------------------------------------------




--------------------------------------- Iteration      1(  16)  ---------------------------------------


    POTLOK:  cpu time      0.7709: real time      0.7712
    SETDIJ:  cpu time      0.0674: real time      0.0674
    TRIAL :  cpu time      1.6001: real time      1.6009
    CORREC:  cpu time      1.7353: real time      1.7360
    CHARGE:  cpu time      0.2017: real time      0.2017
    --------------------------------------------
      LOOP:  cpu time      4.3918: real time      4.4087

 eigenvalue-minimisations  :     0
 total energy-change (2. order) :-0.4248351E-04  (-0.1072457E-04)
 number of electron     128.0000000 magnetization 
 augmentation part       -0.4639176 magnetization 

 Free energy of the ion-electron system (eV)
  ---------------------------------------------------
  alpha Z        PSCENC =       118.91601032
  Ewald energy   TEWEN  =     -3118.12717471
  -Hartree energ DENC   =     -2263.97989733
  -exchange      EXHF   =         0.00000000
  -V(xc)+E(xc)   XCENC  =       364.88323390
  PAW double counting   =     55614.15710052   -55545.80136130
  entropy T*S    EENTRO =        -0.00000000
  eigenvalues    EBANDS =     -1074.91744750
  atomic energy  EATOM  =      5683.82407406
  ---------------------------------------------------
  free energy    TOTEN  =      -221.04546204 eV

  energy without entropy =     -221.04546204  energy(sigma->0) =     -221.04546204


--------------------------------------------------------------------------------------------------------




--------------------------------------- Iteration      1(  17)  ---------------------------------------


    POTLOK:  cpu time      0.7951: real time      0.7954
    SETDIJ:  cpu time      0.0670: real time      0.0670
    TRIAL :  cpu time      1.5957: real time      1.5962
    CORREC:  cpu time      1.7362: real time      1.7370
    CHARGE:  cpu time      0.1947: real time      0.1947
    --------------------------------------------
      LOOP:  cpu time      4.4041: real time      4.4211

 eigenvalue-minimisations  :     0
 total energy-change (2. order) :-0.1080828E-04  (-0.3060647E-05)
 number of electron     128.0000000 magnetization 
 augmentation part       -0.4639130 magnetization 

 Free energy of the ion-electron system (eV)
  ---------------------------------------------------
  alpha Z        PSCENC =       118.91601032
  Ewald energy   TEWEN  =     -3118.12717471
  -Hartree energ DENC   =     -2263.98999416
  -exchange      EXHF   =         0.00000000
  -V(xc)+E(xc)   XCENC  =       364.88372084
  PAW double counting   =     55615.60462906   -55547.24895890
  entropy T*S    EENTRO =        -0.00000000
  eigenvalues    EBANDS =     -1074.90777935
  atomic energy  EATOM  =      5683.82407406
  ---------------------------------------------------
  free energy    TOTEN  =      -221.04547285 eV

  energy without entropy =     -221.04547285  energy(sigma->0) =     -221.04547285


--------------------------------------------------------------------------------------------------------




--------------------------------------- Iteration      1(  18)  ---------------------------------------


    POTLOK:  cpu time      0.7748: real time      0.7750
    SETDIJ:  cpu time      0.0671: real time      0.0671
    TRIAL :  cpu time      1.6007: real time      1.6011
    CORREC:  cpu time      1.7249: real time      1.7259
    CHARGE:  cpu time      0.1781: real time      0.1781
    --------------------------------------------
      LOOP:  cpu time      4.3765: real time      4.3783

 eigenvalue-minimisations  :     0
 total energy-change (2. order) :-0.3019537E-05  (-0.7999264E-06)
 number of electron     128.0000000 magnetization 
 augmentation part       -0.4639131 magnetization 

 Free energy of the ion-electron system (eV)
  ---------------------------------------------------
  alpha Z        PSCENC =       118.91601032
  Ewald energy   TEWEN  =     -3118.12717471
  -Hartree energ DENC   =     -2264.00348238
  -exchange      EXHF   =         0.00000000
  -V(xc)+E(xc)   XCENC  =       364.88466228
  PAW double counting   =     55621.25126460   -55552.89558545
  entropy T*S    EENTRO =        -0.00000000
  eigenvalues    EBANDS =     -1074.89524458
  atomic energy  EATOM  =      5683.82407406
  ---------------------------------------------------
  free energy    TOTEN  =      -221.04547587 eV

  energy without entropy =     -221.04547587  energy(sigma->0) =     -221.04547587


--------------------------------------------------------------------------------------------------------




--------------------------------------- Iteration      1(  19)  ---------------------------------------


    POTLOK:  cpu time      0.7464: real time      0.7466
    SETDIJ:  cpu time      0.0670: real time      0.0670
    TRIAL :  cpu time      1.5949: real time      1.5954
    CORREC:  cpu time      1.8395: real time      1.8403
    CHARGE:  cpu time      0.1910: real time      0.1910
    --------------------------------------------
      LOOP:  cpu time      4.4533: real time      4.4721

 eigenvalue-minimisations  :     0
 total energy-change (2. order) :-0.7945418E-06  (-0.2274223E-06)
 number of electron     128.0000000 magnetization 
 augmentation part       -0.4639095 magnetization 

 Free energy of the ion-electron system (eV)
  ---------------------------------------------------
  alpha Z        PSCENC =       118.91601032
  Ewald energy   TEWEN  =     -3118.12717471
  -Hartree energ DENC   =     -2264.00058608
  -exchange      EXHF   =         0.00000000
  -V(xc)+E(xc)   XCENC  =       364.88459198
  PAW double counting   =     55624.61103788   -55556.25531832
  entropy T*S    EENTRO =        -0.00000000
  eigenvalues    EBANDS =     -1074.89811180
  atomic energy  EATOM  =      5683.82407406
  ---------------------------------------------------
  free energy    TOTEN  =      -221.04547666 eV

  energy without entropy =     -221.04547666  energy(sigma->0) =     -221.04547666


--------------------------------------------------------------------------------------------------------




--------------------------------------- Iteration      1(  20)  ---------------------------------------


    POTLOK:  cpu time      0.7638: real time      0.7641
    SETDIJ:  cpu time      0.0668: real time      0.0668
    TRIAL :  cpu time      1.5944: real time      1.5946
    CORREC:  cpu time      1.7648: real time      1.7655
    CHARGE:  cpu time      0.1998: real time      0.1998
    --------------------------------------------
      LOOP:  cpu time      4.4190: real time      4.4203

 eigenvalue-minimisations  :     0
 total energy-change (2. order) :-0.2245433E-06  (-0.8354078E-07)
 number of electron     128.0000000 magnetization 
 augmentation part       -0.4639082 magnetization 

 Free energy of the ion-electron system (eV)
  ---------------------------------------------------
  alpha Z        PSCENC =       118.91601032
  Ewald energy   TEWEN  =     -3118.12717471
  -Hartree energ DENC   =     -2264.00272962
  -exchange      EXHF   =         0.00000000
  -V(xc)+E(xc)   XCENC  =       364.88473261
  PAW double counting   =     55625.13162788   -55556.77593852
  entropy T*S    EENTRO =        -0.00000000
  eigenvalues    EBANDS =     -1074.89607890
  atomic energy  EATOM  =      5683.82407406
  ---------------------------------------------------
  free energy    TOTEN  =      -221.04547689 eV

  energy without entropy =     -221.04547689  energy(sigma->0) =     -221.04547689


--------------------------------------------------------------------------------------------------------




--------------------------------------- Iteration      1(  21)  ---------------------------------------


    POTLOK:  cpu time      0.7504: real time      0.7507
    SETDIJ:  cpu time      0.0658: real time      0.0658
    TRIAL :  cpu time      1.5946: real time      1.5953
    CORREC:  cpu time      1.7183: real time      1.7189
    EDDIAG:  cpu time      0.7978: real time      0.7986
    CHARGE:  cpu time      0.1780: real time      0.1780
    --------------------------------------------
      LOOP:  cpu time      5.1220: real time      5.1398

 eigenvalue-minimisations  :     0
 total energy-change (2. order) :-0.8208008E-07  (-0.3742004E-07)
 number of electron     128.0000000 magnetization 
 augmentation part       -0.4639115 magnetization 

 Free energy of the ion-electron system (eV)
  ---------------------------------------------------
  alpha Z        PSCENC =       118.91601032
  Ewald energy   TEWEN  =     -3118.12717471
  -Hartree energ DENC   =     -2264.00325456
  -exchange      EXHF   =         0.00000000
  -V(xc)+E(xc)   XCENC  =       364.88479577
  PAW double counting   =     55624.84232009   -55556.48665499
  entropy T*S    EENTRO =        -0.00000000
  eigenvalues    EBANDS =     -1074.89559295
  atomic energy  EATOM  =      5683.82407406
  ---------------------------------------------------
  free energy    TOTEN  =      -221.04547697 eV

  energy without entropy =     -221.04547697  energy(sigma->0) =     -221.04547697


--------------------------------------------------------------------------------------------------------


  average scaling for gradient   0.8176


 average (electrostatic) potential at core
  the test charge radii are     0.5902  0.5770  0.4325
  (the norm of the test charge is              1.0000)
       1 -99.9460       2 -99.9461       3 -99.9457       4 -99.9461       5 -99.9457
       6 -99.9457       7 -99.9463       8 -99.9455       9 -98.6637      10 -98.6637
      11 -98.6638      12 -98.6638      13 -98.6640      14 -98.6638      15 -98.6634
      16 -98.6642      17 -83.8875      18 -83.8874      19 -83.8873      20 -83.8875
      21 -83.8874      22 -83.8872      23 -83.8879      24 -83.8869      25 -43.1737
      26 -43.1738      27 -43.1737      28 -43.1744      29 -43.1735      30 -43.1735
      31 -43.1737      32 -43.1733      33 -43.2382      34 -43.2383      35 -43.2383
      36 -43.2389      37 -43.2379      38 -43.2382      39 -43.2384      40 -43.2374



 E-fermi :  -0.9169     XC(G=0):  -8.0626     alpha+bet : -6.6399

 Fermi energy:        -0.9168969255

 k-point     1 :       0.0000    0.0000    0.0000
  band No.  band energies     occupation 
      1     -19.0252      2.00000
      2     -18.8528      2.00000
      3     -18.7521      2.00000
      4     -18.7211      2.00000
      5     -18.7065      2.00000
      6     -18.7004      2.00000
      7     -18.6909      2.00000
      8     -18.6525      2.00000
      9     -17.1538      2.00000
     10     -17.0402      2.00000
     11     -16.9837      2.00000
     12     -16.9528      2.00000
     13     -16.9189      2.00000
     14     -16.9097      2.00000
     15     -16.8105      2.00000
     16     -16.7661      2.00000
     17      -9.9131      2.00000
     18      -9.7586      2.00000
     19      -9.5968      2.00000
     20      -9.5625      2.00000
     21      -9.5437      2.00000
     22      -9.4299      2.00000
     23      -9.4271      2.00000
     24      -9.4268      2.00000
     25      -8.6954      2.00000
     26      -8.6734      2.00000
     27      -8.5487      2.00000
     28      -8.4569      2.00000
     29      -8.4446      2.00000
     30      -8.3983      2.00000
     31      -8.1798      2.00000
     32      -8.1472      2.00000
     33      -5.2554      2.00000
     34      -5.1478      2.00000
     35      -4.9456      2.00000
     36      -4.9212      2.00000
     37      -4.8260      2.00000
     38      -4.7751      2.00000
     39      -4.7259      2.00000
     40      -4.5387      2.00000
[...]
     50      -3.2706      2.00000
     51      -3.1360      2.00000
     52      -3.1356      2.00000
     53      -2.9807      2.00000
     54      -2.9802      2.00000
     55      -2.9300      2.00000
     56      -2.9299      2.00000
     57      -1.4987      2.00000
     58      -1.4986      2.00000
     59      -1.3300      2.00000
     60      -1.3299      2.00000
     61      -1.1778      2.00000
     62      -1.1777      2.00000
     63      -1.0835      2.00000
     64      -1.0834      2.00000
     65       4.2014      0.00000
     66       4.2016      0.00000
     67       4.3872      0.00000
     68       4.3873      0.00000
     69       4.6839      0.00000
     70       4.6842      0.00000
     71       4.7723      0.00000
     72       4.7724      0.00000
     73       5.4304      0.00000
     74       5.4305      0.00000
     75       5.6151      0.00000
     76       5.6152      0.00000
     77       5.9356      0.00000
     78       5.9357      0.00000
     79       6.1445      0.00000
     80       6.1445      0.00000
     81       6.3404      0.00000
     82       6.3404      0.00000
     83       6.6477      0.00000
     84       6.6479      0.00000
     85       7.2545      0.00000
     86       7.2549      0.00000
     87       7.6552      0.00000
     88       7.6602      0.00000

 k-point    25 :       0.2500    0.5000   -0.3333
  band No.  band energies     occupation 
      1     -18.8361      2.00000
      2     -18.8357      2.00000
      3     -18.7787      2.00000
      4     -18.7782      2.00000
      5     -18.7442      2.00000
      6     -18.7438      2.00000
      7     -18.7126      2.00000
      8     -18.7121      2.00000
      9     -16.9911      2.00000
     10     -16.9910      2.00000
     11     -16.9663      2.00000
     12     -16.9660      2.00000
     13     -16.9013      2.00000
     14     -16.9011      2.00000
     15     -16.8954      2.00000
     16     -16.8952      2.00000
     17      -9.6927      2.00000
     18      -9.6923      2.00000
     19      -9.6385      2.00000
     20      -9.6380      2.00000
     21      -9.5088      2.00000
     22      -9.5083      2.00000
     23      -9.4875      2.00000
     24      -9.4870      2.00000
     25      -8.5738      2.00000
     26      -8.5735      2.00000
     27      -8.5141      2.00000
     28      -8.5138      2.00000
     29      -8.3703      2.00000
     30      -8.3700      2.00000
     31      -8.3537      2.00000
     32      -8.3534      2.00000
     33      -4.9997      2.00000
     34      -4.9996      2.00000
     35      -4.9143      2.00000
     36      -4.9141      2.00000
     37      -4.6120      2.00000
     38      -4.6118      2.00000
     39      -4.5786      2.00000
     40      -4.5784      2.00000
     41      -4.4711      2.00000
     42      -4.4710      2.00000
     43      -4.4047      2.00000
     44      -4.4046      2.00000
     45      -4.2280      2.00000
     46      -4.2279      2.00000
     47      -4.1542      2.00000
     48      -4.1542      2.00000
     49      -3.2708      2.00000
     50      -3.2706      2.00000
     51      -3.1360      2.00000
     52      -3.1355      2.00000
     53      -2.9807      2.00000
     54      -2.9804      2.00000
     55      -2.9302      2.00000
     56      -2.9297      2.00000
     57      -1.4987      2.00000
     58      -1.4986      2.00000
     59      -1.3300      2.00000
     60      -1.3299      2.00000
     61      -1.1777      2.00000
     62      -1.1776      2.00000
     63      -1.0835      2.00000
     64      -1.0835      2.00000
     65       4.2014      0.00000
     66       4.2016      0.00000
     67       4.3871      0.00000
     68       4.3873      0.00000
     69       4.6841      0.00000
     70       4.6841      0.00000
     71       4.7722      0.00000
     72       4.7725      0.00000
     73       5.4305      0.00000
     74       5.4305      0.00000
     75       5.6151      0.00000
     76       5.6152      0.00000
     77       5.9356      0.00000
     78       5.9358      0.00000
     79       6.1444      0.00000
     80       6.1445      0.00000
     81       6.3403      0.00000
     82       6.3403      0.00000
     83       6.6477      0.00000
     84       6.6479      0.00000
     85       7.2544      0.00000
     86       7.2560      0.00000
     87       7.6539      0.00000
     88       7.6555      0.00000

 k-point    26 :       0.5000    0.5000    0.3333
  band No.  band energies     occupation 
      1     -18.7940      2.00000
      2     -18.7937      2.00000
      3     -18.7935      2.00000
      4     -18.7932      2.00000
      5     -18.7424      2.00000
      6     -18.7422      2.00000
      7     -18.7420      2.00000
      8     -18.7416      2.00000
      9     -16.9796      2.00000
     10     -16.9793      2.00000
     11     -16.9793      2.00000
     12     -16.9792      2.00000
     13     -16.8984      2.00000
     14     -16.8981      2.00000
     15     -16.8981      2.00000
     16     -16.8980      2.00000
     17      -9.6585      2.00000
     18      -9.6582      2.00000
     19      -9.6580      2.00000
     20      -9.6577      2.00000
     21      -9.5115      2.00000
     22      -9.5112      2.00000
     23      -9.5110      2.00000
     24      -9.5107      2.00000
     25      -8.4750      2.00000
     26      -8.4747      2.00000
     27      -8.4744      2.00000
     28      -8.4743      2.00000
     29      -8.4197      2.00000
     30      -8.4194      2.00000
     31      -8.4190      2.00000
     32      -8.4190      2.00000
     33      -4.8527      2.00000
     34      -4.8525      2.00000
     35      -4.8524      2.00000
     36      -4.8523      2.00000
     37      -4.7011      2.00000
     38      -4.7009      2.00000
     39      -4.7008      2.00000
     40      -4.7007      2.00000
     41      -4.4482      2.00000
     42      -4.4481      2.00000
     43      -4.4481      2.00000
     44      -4.4480      2.00000
     45      -4.1792      2.00000
     46      -4.1791      2.00000
     47      -4.1790      2.00000
     48      -4.1790      2.00000
     49      -3.1741      2.00000
     50      -3.1739      2.00000
     51      -3.1738      2.00000
     52      -3.1736      2.00000
     53      -3.0203      2.00000
     54      -3.0201      2.00000
     55      -3.0200      2.00000
     56      -3.0197      2.00000
     57      -1.3874      2.00000
     58      -1.3874      2.00000
     59      -1.3873      2.00000
     60      -1.3872      2.00000
     61      -1.1519      2.00000
     62      -1.1518      2.00000
     63      -1.1518      2.00000
     64      -1.1517      2.00000
     65       4.2822      0.00000
     66       4.2823      0.00000
     67       4.2824      0.00000
     68       4.2826      0.00000
     69       4.7365      0.00000
     70       4.7367      0.00000
     71       4.7368      0.00000
     72       4.7369      0.00000
     73       5.6519      0.00000
     74       5.6519      0.00000
     75       5.6520      0.00000
     76       5.6520      0.00000
     77       5.9710      0.00000
     78       5.9711      0.00000
     79       5.9713      0.00000
     80       5.9713      0.00000
     81       6.7105      0.00000
     82       6.7107      0.00000
     83       6.7108      0.00000
     84       6.7115      0.00000
     85       7.2024      0.00000
     86       7.2025      0.00000
     87       7.2028      0.00000
     88       7.2034      0.00000


--------------------------------------------------------------------------------------------------------


 soft charge-density along one line, spin component           1
         0         1         2         3         4         5         6         7         8         9
 total charge-density along one line

 pseudopotential strength for first ion, spin component:           1
 19.948  27.938  -0.018   0.019  -0.010  -0.027   0.028  -0.015
 27.938  39.131  -0.026   0.027  -0.014  -0.038   0.040  -0.022
 -0.018  -0.026  -5.807   0.006   0.009  -8.715   0.009   0.014
  0.019   0.027   0.006  -5.817   0.003   0.009  -8.731   0.005
 -0.010  -0.014   0.009   0.003  -5.801   0.014   0.005  -8.705
 -0.027  -0.038  -8.715   0.009   0.014 -13.059   0.013   0.022
  0.028   0.040   0.009  -8.731   0.005   0.013 -13.083   0.008
 -0.015  -0.022   0.014   0.005  -8.705   0.022   0.008 -13.044
 total augmentation occupancy for first ion, spin component:           1
 12.076  -5.670  -1.406   1.841  -0.614   0.706  -0.991   0.274
 -5.670   2.736   0.928  -1.243   0.388  -0.427   0.633  -0.147
 -1.406   0.928   6.758  -1.125  -1.860  -2.570   0.648   1.013
  1.841  -1.243  -1.125   8.927  -0.708   0.648  -3.790   0.384
 -0.614   0.388  -1.860  -0.708   5.497   1.013   0.384  -1.864
  0.706  -0.427  -2.570   0.648   1.013   1.025  -0.327  -0.465
 -0.991   0.633   0.648  -3.790   0.384  -0.327   1.628  -0.176
  0.274  -0.147   1.013   0.384  -1.864  -0.465  -0.176   0.686


------------------------ aborting loop because EDIFF is reached ----------------------------------------


    FORLOC:  cpu time      0.0064: real time      0.0064
    FORNL :  cpu time      0.8689: real time      0.8693
    FORCOR:  cpu time      0.8157: real time      0.8161
    OFIELD:  cpu time      0.0026: real time      0.0026

 VOLUME and BASIS-vectors are now :
 -----------------------------------------------------------------------------
  energy-cutoff  :     1000.00
  volume of cell :      415.65
      direct lattice vectors                 reciprocal lattice vectors
     6.856000000  0.000000000  0.000000000     0.145857643  0.000000000  0.000000000
     0.000000000  6.628000000  0.000000000     0.000000000  0.150875075  0.000000000
     0.000000000  0.000000000  9.147000000     0.000000000  0.000000000  0.109325462

  length of vectors
     6.856000000  6.628000000  9.147000000     0.145857643  0.150875075  0.109325462


 FORCES acting on ions:
    Electron-Ion                     Ewald-Force                    Non-Local-Force
 -----------------------------------------------------------------------------------------------
   -.524E+01 -.376E+02 0.831E+02   0.104E+02 0.470E+02 -.931E+02   -.521E+01 -.928E+01 0.970E+01
   0.524E+01 0.376E+02 -.831E+02   -.104E+02 -.470E+02 0.931E+02   0.521E+01 0.928E+01 -.970E+01
   0.523E+01 0.376E+02 0.831E+02   -.104E+02 -.469E+02 -.931E+02   0.520E+01 0.928E+01 0.970E+01
   -.524E+01 -.376E+02 -.831E+02   0.104E+02 0.470E+02 0.931E+02   -.520E+01 -.928E+01 -.970E+01
   0.524E+01 -.376E+02 -.831E+02   -.104E+02 0.469E+02 0.931E+02   0.520E+01 -.928E+01 -.970E+01
   -.524E+01 0.376E+02 0.831E+02   0.104E+02 -.469E+02 -.931E+02   -.520E+01 0.928E+01 0.970E+01
   -.523E+01 0.376E+02 -.831E+02   0.104E+02 -.470E+02 0.931E+02   -.521E+01 0.928E+01 -.970E+01
   0.525E+01 -.376E+02 0.831E+02   -.104E+02 0.470E+02 -.931E+02   0.521E+01 -.928E+01 0.970E+01
   -.332E+01 0.584E+02 -.143E+03   0.393E+01 -.731E+02 0.174E+03   -.611E+00 0.148E+02 -.312E+02
   0.332E+01 -.584E+02 0.143E+03   -.393E+01 0.731E+02 -.174E+03   0.611E+00 -.148E+02 0.312E+02
   0.330E+01 -.584E+02 -.143E+03   -.393E+01 0.731E+02 0.174E+03   0.611E+00 -.147E+02 -.312E+02
   -.334E+01 0.585E+02 0.143E+03   0.393E+01 -.731E+02 -.174E+03   -.611E+00 0.147E+02 0.312E+02
   0.332E+01 0.585E+02 0.143E+03   -.393E+01 -.731E+02 -.174E+03   0.610E+00 0.147E+02 0.312E+02
   -.331E+01 -.585E+02 -.143E+03   0.393E+01 0.731E+02 0.174E+03   -.610E+00 -.147E+02 -.312E+02
   -.334E+01 -.584E+02 0.143E+03   0.393E+01 0.731E+02 -.174E+03   -.611E+00 -.147E+02 0.312E+02
   0.330E+01 0.585E+02 -.143E+03   -.393E+01 -.731E+02 0.174E+03   0.611E+00 0.147E+02 -.312E+02
   0.310E+01 -.137E+02 0.377E+02   -.325E+01 0.943E+01 -.302E+02   0.141E+00 0.438E+01 -.787E+01
   -.310E+01 0.137E+02 -.377E+02   0.325E+01 -.943E+01 0.302E+02   -.141E+00 -.438E+01 0.787E+01
   -.310E+01 0.137E+02 0.377E+02   0.325E+01 -.944E+01 -.302E+02   -.141E+00 -.438E+01 -.787E+01
   0.309E+01 -.137E+02 -.378E+02   -.325E+01 0.944E+01 0.302E+02   0.141E+00 0.438E+01 0.787E+01
   -.309E+01 -.137E+02 -.378E+02   0.325E+01 0.946E+01 0.302E+02   -.141E+00 0.438E+01 0.788E+01
   0.309E+01 0.137E+02 0.378E+02   -.325E+01 -.946E+01 -.302E+02   0.141E+00 -.438E+01 -.788E+01
   0.310E+01 0.137E+02 -.378E+02   -.326E+01 -.944E+01 0.302E+02   0.141E+00 -.438E+01 0.787E+01
   -.310E+01 -.137E+02 0.378E+02   0.325E+01 0.944E+01 -.302E+02   -.141E+00 0.438E+01 -.787E+01
   -.206E+02 0.194E+02 0.434E+02   0.237E+02 -.223E+02 -.490E+02   -.319E+01 0.290E+01 0.576E+01
   0.206E+02 -.194E+02 -.434E+02   -.237E+02 0.223E+02 0.490E+02   0.319E+01 -.290E+01 -.576E+01
   0.206E+02 -.194E+02 0.434E+02   -.237E+02 0.223E+02 -.490E+02   0.320E+01 -.290E+01 0.576E+01
   -.206E+02 0.194E+02 -.434E+02   0.237E+02 -.223E+02 0.490E+02   -.320E+01 0.290E+01 -.576E+01
   0.206E+02 0.194E+02 -.434E+02   -.237E+02 -.223E+02 0.490E+02   0.320E+01 0.290E+01 -.576E+01
   -.206E+02 -.194E+02 0.434E+02   0.237E+02 0.223E+02 -.490E+02   -.320E+01 -.290E+01 0.576E+01
   -.206E+02 -.194E+02 -.434E+02   0.237E+02 0.223E+02 0.490E+02   -.319E+01 -.290E+01 -.576E+01
   0.206E+02 0.194E+02 0.434E+02   -.237E+02 -.223E+02 -.490E+02   0.319E+01 0.290E+01 0.576E+01
   0.341E+02 -.387E+02 0.151E+02   -.387E+02 0.440E+02 -.161E+02   0.468E+01 -.546E+01 0.928E+00
   -.341E+02 0.387E+02 -.151E+02   0.387E+02 -.440E+02 0.161E+02   -.468E+01 0.546E+01 -.928E+00
   -.341E+02 0.387E+02 0.151E+02   0.387E+02 -.440E+02 -.161E+02   -.468E+01 0.546E+01 0.928E+00
   0.341E+02 -.387E+02 -.151E+02   -.387E+02 0.440E+02 0.161E+02   0.468E+01 -.546E+01 -.928E+00
   -.341E+02 -.387E+02 -.151E+02   0.387E+02 0.440E+02 0.161E+02   -.468E+01 -.546E+01 -.928E+00
   0.341E+02 0.387E+02 0.151E+02   -.387E+02 -.440E+02 -.161E+02   0.468E+01 0.546E+01 0.928E+00
   0.341E+02 0.387E+02 -.151E+02   -.387E+02 -.440E+02 0.161E+02   0.468E+01 0.546E+01 -.928E+00
   -.341E+02 -.387E+02 0.151E+02   0.387E+02 0.440E+02 -.161E+02   -.468E+01 -.546E+01 0.928E+00
 -----------------------------------------------------------------------------------------------
   -.465E-01 0.137E+00 -.486E-01   -.213E-13 0.711E-13 -.128E-12   0.888E-15 0.444E-14 0.544E-14


 POSITION                                       TOTAL-FORCE (eV/Angst)
 -----------------------------------------------------------------------------------
      0.98679      1.10121      0.99078        -0.018013      0.173709     -0.367937
      5.86921      5.52682      8.15622         0.018013     -0.173709      0.367937
      2.44123      5.52683      5.56428         0.017458     -0.172890     -0.366161
      4.41477      1.10120      3.58272        -0.017458      0.172890      0.366161
      5.86923      4.41522      3.58273         0.017702      0.172362      0.365044
      0.98677      2.21281      5.56427        -0.017702     -0.172362     -0.365044
      4.41477      2.21281      8.15622        -0.018567     -0.173223      0.366044
      2.44121      4.41522      0.99079         0.018567      0.173223     -0.366044
      1.00419      6.60938      3.20382         0.007787     -0.018770      0.115383
      5.85181      0.01866      5.94318        -0.007787      0.018770     -0.115383
      2.42382      0.01860      7.77728        -0.007928      0.022009      0.121677
      4.43221      6.60940      1.36974         0.007928     -0.022009     -0.121677
      5.85183      3.29537      1.36974        -0.008091     -0.022973     -0.124001
      1.00416      3.33266      7.77726         0.008091      0.022973      0.124001
      4.43218      3.33260      5.94315         0.007800      0.020367     -0.118421
      2.42385      3.29539      3.20387        -0.007800     -0.020367      0.118421
      0.99084      0.49271      2.14750        -0.017861     -0.054896      0.074527
      5.86516      6.13533      6.99950         0.017861      0.054896     -0.074527
      2.43716      6.13530      6.72103         0.018059      0.051654      0.067320
      4.41885      0.49272      2.42599        -0.018059     -0.051654     -0.067320
      5.86515      3.80670      2.42595         0.018326     -0.049260     -0.062179
      0.99085      2.82133      6.72105        -0.018326      0.049260      0.062179
      4.41881      2.82132      6.99945        -0.017813      0.052114     -0.068895
      2.43718      3.80670      2.14757         0.017813     -0.052114      0.068895
      1.44156      0.67055      0.17059        -0.101798      0.075014      0.152018
      5.41444      5.95747      8.97641         0.101798     -0.075014     -0.152018
      1.98649      5.95746      4.74414         0.100720     -0.074014      0.150368
      4.86951      0.67059      4.40287        -0.100720      0.074014     -0.150368
      5.41448      3.98459      4.40292         0.101316      0.074464     -0.151672
      1.44152      2.64344      4.74408        -0.101316     -0.074464      0.151672
      4.86954      2.64349      8.97641        -0.102012     -0.075169     -0.152473
      1.98646      3.98455      0.17059         0.102012      0.075169      0.152473
      0.31571      1.87181      0.86440         0.116217     -0.149913     -0.000455
      6.54029      4.75623      8.28259        -0.116217      0.149913      0.000455
      3.11224      4.75627      5.43788        -0.114645      0.148117     -0.000664
      3.74376      1.87176      3.70911         0.114645     -0.148117      0.000664
      6.54028      5.18580      3.70912        -0.115632     -0.149358      0.000231
      0.31571      1.44224      5.43788         0.115632      0.149358     -0.000231
      3.74368      1.44220      8.28258         0.116928      0.150755      0.000302
      3.11232      5.18582      0.86442        -0.116928     -0.150755     -0.000302
 -----------------------------------------------------------------------------------
    total drift:                               -0.046534      0.137419     -0.048605


--------------------------------------------------------------------------------------------------------



  FREE ENERGIE OF THE ION-ELECTRON SYSTEM (eV)
  ---------------------------------------------------
  free  energy   TOTEN  =      -221.04547697 eV

  energy  without entropy=     -221.04547697  energy(sigma->0) =     -221.04547697



--------------------------------------------------------------------------------------------------------


    POTLOK:  cpu time      0.8272: real time      0.8274


--------------------------------------------------------------------------------------------------------


 stress matrix after NEB project (eV)
      0.00000      0.00000      0.00000
      0.00000      0.00000      0.00000
      0.00000      0.00000      0.00000
  FORCES: max atom, RMS     0.407280    0.228771
  FORCE total and by dimension    1.446877    0.367937
  Stress total and by dimension    0.000000    0.000000
     LOOP+:  cpu time     96.9138: real time     97.1822
    4ORBIT:  cpu time      0.0000: real time      0.0000

 total amount of memory used by VASP MPI-rank0    49410. kBytes
=======================================================================

   base      :      30000. kBytes
   nonl-proj :       2658. kBytes
   fftplans  :       1300. kBytes
   grid      :       2273. kBytes
   one-center:          3. kBytes
   wavefun   :      13176. kBytes

  
  
 General timing and accounting informations for this job:
 ========================================================
  
                  Total CPU time used (sec):      126.574
                            User time (sec):      123.678
                          System time (sec):        2.896
                         Elapsed time (sec):      131.662
  
                   Maximum memory used (kb):      311172.
                   Average memory used (kb):          N/A
  
                          Minor page faults:       144575
                          Major page faults:          286
                 Voluntary context switches:         5614
