 vasp.6.4.1 05Apr23 (build Jun  6 2023 14:36:51) complex                         
 executed on        HPECrayEX_GCC date 2024.08.20  14:41:31
 running  256 mpi-ranks, with    1 threads/rank, on    2 nodes
 distrk:  each k-point on  128 cores,    2 groups
 distr:  one band on NCORE=  32 cores,    4 groups


--------------------------------------------------------------------------------------------------------


 INCAR:
   ALGO = Conjugate
   KPAR = 2
   NCORE = 32
   ISMEAR = 0
   SIGMA = 0.01
   PREC = Accurate
   EDIFF = 1E-7
   ENCUT = 1000
   ISIF = 0
   METAGGA = RSCAN
   LASPH = .TRUE.
   SYMPREC = 1E-7
   LWAVE = .FALSE.
   LCHARG = .FALSE.
   LWAVE = .FALSE.
   LCHARGE = .FALSE.

 POTCAR:    PAW_PBE N_h 06Feb2004                 
 POTCAR:    PAW_PBE C_h 06Feb2004                 
 POTCAR:    PAW_PBE H_h 06Feb2004                 
 POTCAR:    PAW_PBE N_h 06Feb2004                 
   VRHFIN =N: s2p3                                                                                  
   LEXCH  = PE                                                                                      
   EATOM  =   264.5486 eV,   19.4438 Ry                                                             
                                                                                                    
   TITEL  = PAW_PBE N_h 06Feb2004                                                                   
   LULTRA =        F    use ultrasoft PP ?                                                          
   IUNSCR =        1    unscreen: 0-lin 1-nonlin 2-no                                               
   RPACOR =    0.800    partial core radius                                                         
   POMASS =   14.001; ZVAL   =    5.000    mass and valenz                                          
   RCORE  =    1.100    outmost cutoff radius                                                       
   RWIGS  =    1.480; RWIGS  =    0.783    wigner-seitz radius (au A)                               
   ENMAX  =  700.000; ENMIN  =  500.000 eV                                                          
   ICORE  =        2    local potential                                                             
   LCOR   =        T    correct aug charges                                                         
   LPAW   =        T    paw PP                                                                      
   EAUG   =  904.640                                                                                
   DEXC   =    0.000                                                                                
   RMAX   =    1.127    core radius for proj-oper                                                   
   RAUG   =    1.300    factor for augmentation sphere                                              
   RDEP   =    1.115    radius for radial grids                                                     
   RDEPT  =    1.106    core radius for aug-charge                                                  
                                                                                                    
   Atomic configuration                                                                             
    4 entries                                                                                       
     n  l   j            E        occ.                                                              
     1  0  0.50      -384.7179   2.0000                                                             
     2  0  0.50       -18.5828   2.0000                                                             
     2  1  0.50        -7.0898   3.0000                                                             
     3  2  1.50        -6.8029   0.0000                                                             
   Description                                                                                      
     l       E           TYP  RCUT    TYP  RCUT                                                     
     0    -18.5828117     23  1.100                                                                 
     0    -15.0750597     23  1.100                                                                 
     1     -7.0897851     23  1.100                                                                 
     1     -1.9663412     23  1.100                                                                 
     2     -6.8029130      7  1.100                                                                 
  local pseudopotential read in
  partial core-charges read in
  partial kinetic energy density read in
  kinetic energy density of atom read in
  atomic valenz-charges read in
  non local Contribution for L=           0  read in
    real space projection operators read in
  non local Contribution for L=           0  read in
    real space projection operators read in
  non local Contribution for L=           1  read in
    real space projection operators read in
  non local Contribution for L=           1  read in
    real space projection operators read in
    PAW grid and wavefunctions read in

   number of l-projection  operators is LMAX  =           4
   number of lm-projection operators is LMMAX =           8

 POTCAR:    PAW_PBE C_h 06Feb2004                 
   VRHFIN =C: s2p2                                                                                  
   LEXCH  = PE                                                                                      
   EATOM  =   147.1560 eV,   10.8157 Ry                                                             
                                                                                                    
   TITEL  = PAW_PBE C_h 06Feb2004                                                                   
   LULTRA =        F    use ultrasoft PP ?                                                          
   IUNSCR =        1    unscreen: 0-lin 1-nonlin 2-no                                               
   RPACOR =    0.800    partial core radius                                                         
   POMASS =   12.011; ZVAL   =    4.000    mass and valenz                                          
   RCORE  =    1.100    outmost cutoff radius                                                       
   RWIGS  =    1.630; RWIGS  =    0.863    wigner-seitz radius (au A)                               
   ENMAX  =  700.000; ENMIN  =  500.000 eV                                                          
   ICORE  =        2    local potential                                                             
   LCOR   =        T    correct aug charges                                                         
   LPAW   =        T    paw PP                                                                      
   EAUG   =  946.768                                                                                
   DEXC   =    0.000                                                                                
   RMAX   =    1.128    core radius for proj-oper                                                   
   RAUG   =    1.300    factor for augmentation sphere                                              
   RDEP   =    1.162    radius for radial grids                                                     
   RDEPT  =    1.088    core radius for aug-charge                                                  
                                                                                                    
   Atomic configuration                                                                             
    4 entries                                                                                       
     n  l   j            E        occ.                                                              
     1  0  0.50      -273.3789   2.0000                                                             
     2  0  0.50       -13.7508   2.0000                                                             
     2  1  0.50        -5.2854   2.0000                                                             
     3  2  1.50        -5.4423   0.0000                                                             
   Description                                                                                      
     l       E           TYP  RCUT    TYP  RCUT                                                     
     0    -13.7508458     23  1.100                                                                 
     0     -8.2022199     23  1.100                                                                 
     1     -5.2854383     23  1.100                                                                 
     1      1.1560700     23  1.100                                                                 
     2     -5.4423304      7  1.100                                                                 
  local pseudopotential read in
  partial core-charges read in
  partial kinetic energy density read in
  atomic valenz-charges read in
  non local Contribution for L=           0  read in
    real space projection operators read in
  non local Contribution for L=           0  read in
    real space projection operators read in
  non local Contribution for L=           1  read in
    real space projection operators read in
  non local Contribution for L=           1  read in
    real space projection operators read in
    PAW grid and wavefunctions read in

   number of l-projection  operators is LMAX  =           4
   number of lm-projection operators is LMMAX =           8

 POTCAR:    PAW_PBE H_h 06Feb2004                 
   VRHFIN =H: ultrasoft test                                                                        
   LEXCH  = PE                                                                                      
   EATOM  =    12.4884 eV,    0.9179 Ry                                                             
                                                                                                    
   TITEL  = PAW_PBE H_h 06Feb2004                                                                   
   LULTRA =        F    use ultrasoft PP ?                                                          
   IUNSCR =        0    unscreen: 0-lin 1-nonlin 2-no                                               
   RPACOR =    0.000    partial core radius                                                         
   POMASS =    1.000; ZVAL   =    1.000    mass and valenz                                          
   RCORE  =    0.800    outmost cutoff radius                                                       
   RWIGS  =    0.700; RWIGS  =    0.370    wigner-seitz radius (au A)                               
   ENMAX  =  700.000; ENMIN  =  350.000 eV                                                          
   RCLOC  =    0.701    cutoff for local pot                                                        
   LCOR   =        T    correct aug charges                                                         
   LPAW   =        T    paw PP                                                                      
   EAUG   = 1000.000                                                                                
   RMAX   =    0.819    core radius for proj-oper                                                   
   RAUG   =    1.000    factor for augmentation sphere                                              
   RDEP   =    0.817    radius for radial grids                                                     
   RDEPT  =    0.817    core radius for aug-charge                                                  
                                                                                                    
   Atomic configuration                                                                             
    2 entries                                                                                       
     n  l   j            E        occ.                                                              
     1  0  0.50        -6.4927   1.0000                                                             
     2  1  0.50        -3.4015   0.0000                                                             
   Description                                                                                      
     l       E           TYP  RCUT    TYP  RCUT                                                     
     0     -6.4927493     23  0.800                                                                 
     0      6.8029130     23  0.800                                                                 
     1     -6.8029130     23  0.800                                                                 
  local pseudopotential read in
  atomic valenz-charges read in
  non local Contribution for L=           0  read in
    real space projection operators read in
  non local Contribution for L=           0  read in
    real space projection operators read in
  non local Contribution for L=           1  read in
    real space projection operators read in
    PAW grid and wavefunctions read in

   number of l-projection  operators is LMAX  =           3
   number of lm-projection operators is LMMAX =           5

 -----------------------------------------------------------------------------
|                                                                             |
|               ----> ADVICE to this user running VASP <----                  |
|                                                                             |
|     You have a (more or less) 'large supercell' and for larger cells it     |
|     might be more efficient to use real-space projection operators.         |
|     Therefore, try LREAL= Auto in the INCAR file.                           |
|     Mind: For very accurate calculation, you might also keep the            |
|     reciprocal projection scheme (i.e. LREAL=.FALSE.).                      |
|                                                                             |
 -----------------------------------------------------------------------------

  PAW_PBE N_h 06Feb2004                 :
 energy of atom  1       EATOM= -264.5486
 kinetic energy error for atom=    0.0081 (will be added to EATOM!!)
  PAW_PBE C_h 06Feb2004                 :
 energy of atom  2       EATOM= -147.1560
 kinetic energy error for atom=    0.0031 (will be added to EATOM!!)
  PAW_PBE H_h 06Feb2004                 :
 energy of atom  3       EATOM=  -12.4884
 kinetic energy error for atom=    0.0006 (will be added to EATOM!!)


 POSCAR:  N  C  H
  positions in cartesian coordinates
  No initial velocities read in

 METAGGA = RSCAN                                       LMAXTAU =  6    LMIXTAU =  F

 exchange correlation table for  LEXCH =        8
   RHO(1)=    0.500       N(1)  =     2000
   RHO(2)=  100.500       N(2)  =     4000

 VTST: version 4.1, (05/19/21)

 CHAIN: initializing optimizer
 
 OPT: Using VASP Dynamics algorithm
 CHAIN: Read ICHAIN            0

 POSCAR:  N  C  H
  positions in cartesian coordinates
  No initial velocities read in



--------------------------------------------------------------------------------------------------------


 ion  position               nearest neighbor table
   1  0.144  0.166  0.108-  33 1.03  25 1.03  17 1.31
   2  0.856  0.834  0.892-  34 1.03  26 1.03  18 1.31
   3  0.356  0.834  0.608-  35 1.03  27 1.03  19 1.31
   4  0.644  0.166  0.392-  36 1.03  28 1.03  20 1.31
   5  0.856  0.666  0.392-  37 1.03  29 1.03  21 1.31
   6  0.144  0.334  0.608-  38 1.03  30 1.03  22 1.31
   7  0.644  0.334  0.892-  39 1.03  31 1.03  23 1.31
   8  0.356  0.666  0.108-  40 1.03  32 1.03  24 1.31
   9  0.146  0.997  0.350-  17 1.17
  10  0.854  0.003  0.650-  18 1.17
  11  0.354  0.003  0.850-  19 1.17
  12  0.646  0.997  0.150-  20 1.17
  13  0.854  0.497  0.150-  21 1.17
  14  0.146  0.503  0.850-  22 1.17
  15  0.646  0.503  0.650-  23 1.17
  16  0.354  0.497  0.350-  24 1.17
  17  0.145  0.074  0.235-   9 1.17   1 1.31
  18  0.855  0.926  0.765-  10 1.17   2 1.31
  19  0.355  0.926  0.735-  11 1.17   3 1.31
  20  0.645  0.074  0.265-  12 1.17   4 1.31
  21  0.855  0.574  0.265-  13 1.17   5 1.31
  22  0.145  0.426  0.735-  14 1.17   6 1.31
  23  0.645  0.426  0.765-  15 1.17   7 1.31
  24  0.355  0.574  0.235-  16 1.17   8 1.31
  25  0.210  0.101  0.019-   1 1.03
  26  0.790  0.899  0.981-   2 1.03
  27  0.290  0.899  0.519-   3 1.03
  28  0.710  0.101  0.481-   4 1.03
  29  0.790  0.601  0.481-   5 1.03
  30  0.210  0.399  0.519-   6 1.03
  31  0.710  0.399  0.981-   7 1.03
  32  0.290  0.601  0.019-   8 1.03
  33  0.046  0.282  0.095-   1 1.03
  34  0.954  0.718  0.905-   2 1.03
  35  0.454  0.718  0.594-   3 1.03
  36  0.546  0.282  0.405-   4 1.03
  37  0.954  0.782  0.406-   5 1.03
  38  0.046  0.218  0.594-   6 1.03
  39  0.546  0.218  0.905-   7 1.03
  40  0.454  0.782  0.095-   8 1.03

  LATTYP: Found a simple orthorhombic cell.
 ALAT       =     6.6280000000
 B/A-ratio  =     1.0343995172
 C/A-ratio  =     1.3800543150
  
  Lattice vectors:
  
 A1 = (   0.0000000000,  -6.6280000000,   0.0000000000)
 A2 = (   6.8560000000,   0.0000000000,   0.0000000000)
 A3 = (   0.0000000000,   0.0000000000,   9.1470000000)


Analysis of symmetry for initial positions (statically):
=====================================================================
 Subroutine PRICEL returns:
 Original cell was already a primitive cell.
 

 Routine SETGRP: Setting up the symmetry group for a 
 simple orthorhombic supercell.


 Subroutine GETGRP returns: Found  1 space group operations
 (whereof  1 operations were pure point group operations)
 out of a pool of  8 trial point group operations.


The static configuration has the point symmetry C_1 .


Analysis of symmetry for dynamics (positions and initial velocities):
=====================================================================
 Subroutine PRICEL returns:
 Original cell was already a primitive cell.
 

 Routine SETGRP: Setting up the symmetry group for a 
 simple orthorhombic supercell.


 Subroutine GETGRP returns: Found  1 space group operations
 (whereof  1 operations were pure point group operations)
 out of a pool of  8 trial point group operations.


The dynamic configuration has the point symmetry C_1 .


 Subroutine INISYM returns: Found  1 space group operations
 (whereof  1 operations are pure point group operations),
 and found     1 'primitive' translations


----------------------------------------------------------------------------------------

                                     Primitive cell                                     

  volume of cell :     415.6540

  direct lattice vectors                    reciprocal lattice vectors
     6.856000000  0.000000000  0.000000000     0.145857643  0.000000000  0.000000000
     0.000000000  6.628000000  0.000000000     0.000000000  0.150875075  0.000000000
     0.000000000  0.000000000  9.147000000     0.000000000  0.000000000  0.109325462

  length of vectors
     6.856000000  6.628000000  9.147000000     0.145857643  0.150875075  0.109325462

  position of ions in fractional coordinates (direct lattice)
     0.143930733  0.166145508  0.108317168
     0.856069582  0.833859835  0.891682563
     0.356072303  0.833861260  0.608317245
     0.643928580  0.166144304  0.391683022
     0.856072073  0.666146724  0.391683865
     0.143928031  0.333857930  0.608316301
     0.643928632  0.333857963  0.891682734
     0.356069295  0.666146835  0.108318911
     0.146468505  0.997190838  0.350258895
     0.853531025  0.002814810  0.649740955
     0.353532148  0.002805528  0.850254528
     0.646471688  0.997194472  0.149747710
     0.853534634  0.497189310  0.149747627
     0.146464762  0.502815926  0.850252307
     0.646467064  0.502805666  0.649737442
     0.353536455  0.497192848  0.350264085
     0.144521698  0.074337867  0.234776897
     0.855478271  0.925667762  0.765223147
     0.355478444  0.925664261  0.734779199
     0.644523667  0.074338457  0.265222176
     0.855477358  0.574336336  0.265217807
     0.144522328  0.425668646  0.734782160
     0.644517261  0.425667228  0.765217701
     0.355481008  0.574336118  0.234784595
     0.210262133  0.101169491  0.018649582
     0.789737434  0.898834450  0.981350445
     0.289744085  0.898832635  0.518655410
     0.710255280  0.101174648  0.481346209
     0.789743234  0.601175397  0.481350742
     0.210256233  0.398829556  0.518649257
     0.710259024  0.398836817  0.981350549
     0.289739792  0.601168672  0.018649451
     0.046049261  0.282408777  0.094501239
     0.953950919  0.717596302  0.905498169
     0.453943273  0.717602929  0.594498936
     0.546055938  0.282401728  0.405499684
     0.953950324  0.782407493  0.405501363
     0.046049081  0.217597828  0.594498680
     0.546043803  0.217592277  0.905497175
     0.453956166  0.782411587  0.094503019

  ion indices of the primitive-cell ions
   primitive index   ion index
                 1           1
                 2           2
                 3           3
                 4           4
                 5           5
                 6           6
                 7           7
                 8           8
                 9           9
                10          10
                11          11
                12          12
                13          13
                14          14
                15          15
                16          16
                17          17
                18          18
                19          19
                20          20
                21          21
                22          22
                23          23
                24          24
                25          25
                26          26
                27          27
                28          28
                29          29
                30          30
                31          31
                32          32
                33          33
                34          34
                35          35
                36          36
                37          37
                38          38
                39          39
                40          40

----------------------------------------------------------------------------------------



 KPOINTS: auto                                    

Automatic generation of k-mesh.
 Grid dimensions read from file:
 generate k-points for:    4    4    3

 Generating k-lattice:

  Cartesian coordinates                     Fractional coordinates (reciprocal lattice)
     0.036464411  0.000000000  0.000000000     0.250000000  0.000000000  0.000000000
     0.000000000  0.037718769  0.000000000     0.000000000  0.250000000  0.000000000
     0.000000000  0.000000000  0.036441821     0.000000000  0.000000000  0.333333333

  Length of vectors
     0.036464411  0.037718769  0.036441821

  Shift w.r.t. Gamma in fractional coordinates (k-lattice)
     0.000000000  0.000000000  0.000000000

 
 Subroutine IBZKPT returns following result:
 ===========================================
 
 Found     26 irreducible k-points:
 
 Following reciprocal coordinates:
            Coordinates               Weight
  0.000000  0.000000  0.000000      1.000000
  0.250000  0.000000  0.000000      2.000000
  0.500000  0.000000  0.000000      1.000000
  0.000000  0.250000  0.000000      2.000000
  0.250000  0.250000  0.000000      2.000000
 -0.250000  0.250000  0.000000      2.000000
  0.500000  0.250000  0.000000      2.000000
  0.000000  0.500000  0.000000      1.000000
  0.250000  0.500000  0.000000      2.000000
  0.500000  0.500000  0.000000      1.000000
  0.000000  0.000000  0.333333      2.000000
  0.250000  0.000000  0.333333      2.000000
  0.250000  0.000000 -0.333333      2.000000
  0.500000  0.000000  0.333333      2.000000
  0.000000  0.250000  0.333333      2.000000
  0.000000  0.250000 -0.333333      2.000000
  0.250000  0.250000  0.333333      2.000000
 -0.250000  0.250000 -0.333333      2.000000
  0.250000 -0.250000 -0.333333      2.000000
 -0.250000 -0.250000  0.333333      2.000000
  0.500000  0.250000  0.333333      2.000000
  0.500000  0.250000 -0.333333      2.000000
  0.000000  0.500000  0.333333      2.000000
  0.250000  0.500000  0.333333      2.000000
  0.250000  0.500000 -0.333333      2.000000
  0.500000  0.500000  0.333333      2.000000
 
 Following cartesian coordinates:
            Coordinates               Weight
  0.000000  0.000000  0.000000      1.000000
  0.036464  0.000000  0.000000      2.000000
  0.072929  0.000000  0.000000      1.000000
  0.000000  0.037719  0.000000      2.000000
  0.036464  0.037719  0.000000      2.000000
 -0.036464  0.037719  0.000000      2.000000
  0.072929  0.037719  0.000000      2.000000
  0.000000  0.075438  0.000000      1.000000
  0.036464  0.075438  0.000000      2.000000
  0.072929  0.075438  0.000000      1.000000
  0.000000  0.000000  0.036442      2.000000
  0.036464  0.000000  0.036442      2.000000
  0.036464  0.000000 -0.036442      2.000000
  0.072929  0.000000  0.036442      2.000000
  0.000000  0.037719  0.036442      2.000000
  0.000000  0.037719 -0.036442      2.000000
  0.036464  0.037719  0.036442      2.000000
 -0.036464  0.037719 -0.036442      2.000000
  0.036464 -0.037719 -0.036442      2.000000
 -0.036464 -0.037719  0.036442      2.000000
  0.072929  0.037719  0.036442      2.000000
  0.072929  0.037719 -0.036442      2.000000
  0.000000  0.075438  0.036442      2.000000
  0.036464  0.075438  0.036442      2.000000
  0.036464  0.075438 -0.036442      2.000000
  0.072929  0.075438  0.036442      2.000000
 


--------------------------------------------------------------------------------------------------------




 Dimension of arrays:
   k-points           NKPTS =     26   k-points in BZ     NKDIM =     26   number of bands    NBANDS=     88
   number of dos      NEDOS =    301   number of ions     NIONS =     40
   non local maximal  LDIM  =      4   non local SUM 2l+1 LMDIM =      8
   total plane-waves  NPLWV = 483840
   max r-space proj   IRMAX =      1   max aug-charges    IRDMAX=   8466
   dimension x,y,z NGX =    72 NGY =   70 NGZ =   96
   dimension x,y,z NGXF=   144 NGYF=  140 NGZF=  192
   support grid    NGXF=   144 NGYF=  140 NGZF=  192
   ions per type =              16   8  16
   NGX,Y,Z   is equivalent  to a cutoff of  17.46, 17.56, 17.45 a.u.
   NGXF,Y,Z  is equivalent  to a cutoff of  34.92, 35.12, 34.90 a.u.

 SYSTEM =  unknown system                          
 POSCAR =   N  C  H                                

 Startparameter for this run:
   NWRITE =      2    write-flag & timer
   PREC   = accura    normal or accurate (medium, high low for compatibility)
   ISTART =      0    job   : 0-new  1-cont  2-samecut
   ICHARG =      2    charge: 1-file 2-atom 10-const
   ISPIN  =      1    spin polarized calculation?
   LNONCOLLINEAR =      F non collinear calculations
   LSORBIT =      F    spin-orbit coupling
   INIWAV =      1    electr: 0-lowe 1-rand  2-diag
   LASPH  =      T    aspherical Exc in radial PAW
 Electronic Relaxation 1
   ENCUT  = 1000.0 eV  73.50 Ry    8.57 a.u.  17.68 17.09 23.58*2*pi/ulx,y,z
   ENINI  = 1000.0     initial cutoff
   ENAUG  = 1000.0 eV  augmentation charge cutoff
   NELM   =     60;   NELMIN=  2; NELMDL= -5     # of ELM steps 
   EDIFF  = 0.1E-06   stopping-criterion for ELM
   LREAL  =      F    real-space projection
   NLSPLINE    = F    spline interpolate recip. space projectors
   LCOMPAT=      F    compatible to vasp.4.4
   GGA_COMPAT  = T    GGA compatible to vasp.4.4-vasp.4.6
   LMAXPAW     = -100 max onsite density
   LMAXMIX     =    2 max onsite mixed and CHGCAR
   VOSKOWN=      0    Vosko Wilk Nusair interpolation
   ROPT   =    0.00000   0.00000   0.00000
 Ionic relaxation
   EDIFFG = 0.1E-05   stopping-criterion for IOM
   NSW    =      0    number of steps for IOM
   NBLOCK =      1;   KBLOCK =      1    inner block; outer block 
   IBRION =     -1    ionic relax: 0-MD 1-quasi-New 2-CG
   NFREE  =      0    steps in history (QN), initial steepest desc. (CG)
   ISIF   =      0    stress and relaxation
   IWAVPR =     10    prediction:  0-non 1-charg 2-wave 3-comb
   ISYM   =      2    0-nonsym 1-usesym 2-fastsym
   LCORR  =      T    Harris-Foulkes like correction to forces

   POTIM  = 0.5000    time-step for ionic-motion
   TEIN   =    0.0    initial temperature
   TEBEG  =    0.0;   TEEND  =   0.0 temperature during run
   SMASS  =  -3.00    Nose mass-parameter (am)
   estimated Nose-frequenzy (Omega)   =  0.10E-29 period in steps = 0.13E+47 mass=  -0.107E-26a.u.
   SCALEE = 1.0000    scale energy and forces
   NPACO  =    256;   APACO  = 10.0  distance and # of slots for P.C.
   PSTRESS=    0.0 pullay stress

  Mass of Ions in am
   POMASS =  14.00 12.01  1.00
  Ionic Valenz
   ZVAL   =   5.00  4.00  1.00
  Atomic Wigner-Seitz radii
   RWIGS  =  -1.00 -1.00 -1.00
  virtual crystal weights 
   VCA    =   1.00  1.00  1.00
   NELECT =     128.0000    total number of electrons
   NUPDOWN=      -1.0000    fix difference up-down

 DOS related values:
   EMIN   =  10.00;   EMAX   =-10.00  energy-range for DOS
   EFERMI =   0.00;   METHOD = LEGACY      
   ISMEAR =     0;   SIGMA  =   0.01  broadening in eV -4-tet -1-fermi 0-gaus

 Electronic relaxation 2 (details)
   IALGO  =     58    algorithm
   LDIAG  =      T    sub-space diagonalisation (order eigenvalues)
   LSUBROT=      F    optimize rotation matrix (better conditioning)
   TURBO    =      0    0=normal 1=particle mesh
   IRESTART =      0    0=no restart 2=restart with 2 vectors
   NREBOOT  =      0    no. of reboots
   NMIN     =      0    reboot dimension
   EREF     =   0.00    reference energy to select bands
   IMIX   =      4    mixing-type and parameters
     AMIX     =   0.40;   BMIX     =  1.00
     AMIX_MAG =   1.60;   BMIX_MAG =  1.00
     AMIN     =   0.10
     WC   =   100.;   INIMIX=   1;  MIXPRE=   1;  MAXMIX= -45

 Intra band minimization:
   WEIMIN = 0.0000     energy-eigenvalue tresh-hold
   EBREAK =  0.28E-09  absolut break condition
   DEPER  =   0.30     relativ break condition  

   TIME   =   0.40     timestep for ELM

  volume/ion in A,a.u.               =      10.39        70.12
  Fermi-wavevector in a.u.,A,eV,Ry     =   1.105522  2.089134 16.628761  1.222179
  Thomas-Fermi vector in A             =   2.242010

 Write flags
   LWAVE        =      F    write WAVECAR
   LDOWNSAMPLE  =      F    k-point downsampling of WAVECAR
   LCHARG       =      F    write CHGCAR
   LVTOT        =      F    write LOCPOT, total local potential
   LVHAR        =      F    write LOCPOT, Hartree potential only
   LELF         =      F    write electronic localiz. function (ELF)
   LORBIT       =      0    0 simple, 1 ext, 2 COOP (PROOUT), +10 PAW based schemes


 Dipole corrections
   LMONO  =      F    monopole corrections only (constant potential shift)
   LDIPOL =      F    correct potential (dipole corrections)
   IDIPOL =      0    1-x, 2-y, 3-z, 4-all directions 
   EPSILON=  1.0000000 bulk dielectric constant

 Exchange correlation treatment:
   GGA     =    --    GGA type
   LEXCH   =     8    internal setting for exchange type
   LIBXC   =     F    Libxc                    
   VOSKOWN =     0    Vosko Wilk Nusair interpolation
   LHFCALC =     F    Hartree Fock is set to
   LHFONE  =     F    Hartree Fock one center treatment
   AEXX    =    0.0000 exact exchange contribution

 Linear response parameters
   LEPSILON=     F    determine dielectric tensor
   LRPA    =     F    only Hartree local field effects (RPA)
   LNABLA  =     F    use nabla operator in PAW spheres
   LVEL    =     F    velocity operator in full k-point grid
   CSHIFT  =0.1000    complex shift for real part using Kramers Kronig
   OMEGAMAX=  -1.0    maximum frequency
   DEG_THRESHOLD= 0.2000000E-02 threshold for treating states as degnerate
   RTIME   =   -0.100 relaxation time in fs
  (WPLASMAI=    0.000 imaginary part of plasma frequency in eV, 0.658/RTIME)
   DFIELD  = 0.0000000 0.0000000 0.0000000 field for delta impulse in time

  Optional k-point grid parameters
   LKPOINTS_OPT  =     F    use optional k-point grid
   KPOINTS_OPT_MODE=     1    mode for optional k-point grid

 Orbital magnetization related:
   ORBITALMAG=     F  switch on orbital magnetization
   LCHIMAG   =     F  perturbation theory with respect to B field
   DQ        =  0.001000  dq finite difference perturbation B field
   LLRAUG    =     F  two centre corrections for induced B field
   LBONE     =     F  B-component reconstruction in AE one-centre
   LVGVCALC  =     T  calculate vGv susceptibility
   LVGVAPPL  =     F  apply vGv susceptibility instead of pGv for G=0

 Random number generation:
   RANDOM_GENERATOR = DEFAULT
   PCG_SEED         = not used


--------------------------------------------------------------------------------------------------------


 Static calculation
 charge density and potential will be updated during run
 non-spin polarized calculation
 Conjugate gradient for all bands (Freysoldt, et al. PRB 79, 241103 (2009))
 preconditioned conjugated gradient                                        
 perform sub-space diagonalisation
    before iterative eigenvector-optimisation
 modified Broyden-mixing scheme, WC =      100.0
 initial mixing is a Kerker type mixing with AMIX =  0.4000 and BMIX =      1.0000
 Hartree-type preconditioning will be used
 using additional bands           24
 reciprocal scheme for non local part
 use partial core corrections
 no Harris-corrections to forces 
 use gradient corrections 
 use of overlap-Matrix (Vanderbilt PP)
 Gauss-broadening in eV      SIGMA  =   0.01


--------------------------------------------------------------------------------------------------------


  energy-cutoff  :     1000.00
  volume of cell :      415.65
      direct lattice vectors                 reciprocal lattice vectors
     6.856000000  0.000000000  0.000000000     0.145857643  0.000000000  0.000000000
     0.000000000  6.628000000  0.000000000     0.000000000  0.150875075  0.000000000
     0.000000000  0.000000000  9.147000000     0.000000000  0.000000000  0.109325462

  length of vectors
     6.856000000  6.628000000  9.147000000     0.145857643  0.150875075  0.109325462



 k-points in units of 2pi/SCALE and weight: auto                                    
   0.00000000  0.00000000  0.00000000       0.021
   0.03646441  0.00000000  0.00000000       0.042
   0.07292882  0.00000000  0.00000000       0.021
   0.00000000  0.03771877  0.00000000       0.042
   0.03646441  0.03771877  0.00000000       0.042
  -0.03646441  0.03771877  0.00000000       0.042
   0.07292882  0.03771877  0.00000000       0.042
   0.00000000  0.07543754  0.00000000       0.021
   0.03646441  0.07543754  0.00000000       0.042
   0.07292882  0.07543754  0.00000000       0.021
   0.00000000  0.00000000  0.03644182       0.042
   0.03646441  0.00000000  0.03644182       0.042
   0.03646441  0.00000000 -0.03644182       0.042
   0.07292882  0.00000000  0.03644182       0.042
   0.00000000  0.03771877  0.03644182       0.042
   0.00000000  0.03771877 -0.03644182       0.042
   0.03646441  0.03771877  0.03644182       0.042
  -0.03646441  0.03771877 -0.03644182       0.042
   0.03646441 -0.03771877 -0.03644182       0.042
  -0.03646441 -0.03771877  0.03644182       0.042
   0.07292882  0.03771877  0.03644182       0.042
   0.07292882  0.03771877 -0.03644182       0.042
   0.00000000  0.07543754  0.03644182       0.042
   0.03646441  0.07543754  0.03644182       0.042
   0.03646441  0.07543754 -0.03644182       0.042
   0.07292882  0.07543754  0.03644182       0.042

 k-points in reciprocal lattice and weights: auto                                    
   0.00000000  0.00000000  0.00000000       0.021
   0.25000000  0.00000000  0.00000000       0.042
   0.50000000  0.00000000  0.00000000       0.021
   0.00000000  0.25000000  0.00000000       0.042
   0.25000000  0.25000000  0.00000000       0.042
  -0.25000000  0.25000000  0.00000000       0.042
   0.50000000  0.25000000  0.00000000       0.042
   0.00000000  0.50000000  0.00000000       0.021
   0.25000000  0.50000000  0.00000000       0.042
   0.50000000  0.50000000  0.00000000       0.021
   0.00000000  0.00000000  0.33333333       0.042
   0.25000000  0.00000000  0.33333333       0.042
   0.25000000  0.00000000 -0.33333333       0.042
   0.50000000  0.00000000  0.33333333       0.042
   0.00000000  0.25000000  0.33333333       0.042
   0.00000000  0.25000000 -0.33333333       0.042
   0.25000000  0.25000000  0.33333333       0.042
  -0.25000000  0.25000000 -0.33333333       0.042
   0.25000000 -0.25000000 -0.33333333       0.042
  -0.25000000 -0.25000000  0.33333333       0.042
   0.50000000  0.25000000  0.33333333       0.042
   0.50000000  0.25000000 -0.33333333       0.042
   0.00000000  0.50000000  0.33333333       0.042
   0.25000000  0.50000000  0.33333333       0.042
   0.25000000  0.50000000 -0.33333333       0.042
   0.50000000  0.50000000  0.33333333       0.042

 position of ions in fractional coordinates (direct lattice) 
   0.14393073  0.16614551  0.10831717
   0.85606958  0.83385984  0.89168256
   0.35607230  0.83386126  0.60831724
   0.64392858  0.16614430  0.39168302
   0.85607207  0.66614672  0.39168387
   0.14392803  0.33385793  0.60831630
   0.64392863  0.33385796  0.89168273
   0.35606930  0.66614684  0.10831891
   0.14646851  0.99719084  0.35025889
   0.85353103  0.00281481  0.64974096
   0.35353215  0.00280553  0.85025453
   0.64647169  0.99719447  0.14974771
   0.85353463  0.49718931  0.14974763
   0.14646476  0.50281593  0.85025231
   0.64646706  0.50280567  0.64973744
   0.35353645  0.49719285  0.35026408
   0.14452170  0.07433787  0.23477690
   0.85547827  0.92566776  0.76522315
   0.35547844  0.92566426  0.73477920
   0.64452367  0.07433846  0.26522218
   0.85547736  0.57433634  0.26521781
   0.14452233  0.42566865  0.73478216
   0.64451726  0.42566723  0.76521770
   0.35548101  0.57433612  0.23478460
   0.21026213  0.10116949  0.01864958
   0.78973743  0.89883445  0.98135044
   0.28974409  0.89883264  0.51865541
   0.71025528  0.10117465  0.48134621
   0.78974323  0.60117540  0.48135074
   0.21025623  0.39882956  0.51864926
   0.71025902  0.39883682  0.98135055
   0.28973979  0.60116867  0.01864945
   0.04604926  0.28240878  0.09450124
   0.95395092  0.71759630  0.90549817
   0.45394327  0.71760293  0.59449894
   0.54605594  0.28240173  0.40549968
   0.95395032  0.78240749  0.40550136
   0.04604908  0.21759783  0.59449868
   0.54604380  0.21759228  0.90549718
   0.45395617  0.78241159  0.09450302

 position of ions in cartesian coordinates  (Angst):
   0.98678911  1.10121243  0.99077714
   5.86921305  5.52682299  8.15622040
   2.44123171  5.52683243  5.56427784
   4.41477435  1.10120445  3.58272460
   5.86923013  4.41522049  3.58273232
   0.98677058  2.21281036  5.56426921
   4.41477470  2.21281058  8.15622196
   2.44121109  4.41522122  0.99079308
   1.00418807  6.60938087  3.20381811
   5.85180871  0.01865656  5.94318052
   2.42381641  0.01859504  7.77727817
   4.43220989  6.60940496  1.36974230
   5.85183345  3.29537075  1.36974155
   1.00416241  3.33266396  7.77725785
   4.43217819  3.33259595  5.94314838
   2.42384593  3.29539420  3.20386558
   0.99084076  0.49271138  2.14750428
   5.86515902  6.13532592  6.99949613
   2.43716021  6.13530272  6.72102533
   4.41885426  0.49271529  2.42598724
   5.86515277  3.80670123  2.42594728
   0.99084508  2.82133178  6.72105241
   4.41881034  2.82132239  6.99944631
   2.43717779  3.80669979  2.14757469
   1.44155719  0.67055139  0.17058773
   5.41443985  5.95747474  8.97641252
   1.98648545  5.95746271  4.74414103
   4.86951020  0.67058557  4.40287378
   5.41447961  3.98459053  4.40291523
   1.44151673  2.64344230  4.74408475
   4.86953587  2.64349042  8.97641347
   1.98645601  3.98454595  0.17058653
   0.31571373  1.87180537  0.86440283
   6.54028750  4.75622829  8.28259175
   3.11223508  4.75627221  5.43788177
   3.74375951  1.87175865  3.70910561
   6.54028342  5.18579686  3.70912097
   0.31571250  1.44223840  5.43787943
   3.74367631  1.44220161  8.28258266
   3.11232348  5.18582400  0.86441911



--------------------------------------------------------------------------------------------------------


 k-point   1 :   0.0000 0.0000 0.0000  plane waves:   29863
 k-point   2 :   0.2500 0.0000 0.0000  plane waves:   29873
 k-point   3 :   0.5000 0.0000 0.0000  plane waves:   29848
 k-point   4 :   0.0000 0.2500 0.0000  plane waves:   29860
 k-point   5 :   0.2500 0.2500 0.0000  plane waves:   29833
 k-point   6 :  -0.2500 0.2500 0.0000  plane waves:   29833
 k-point   7 :   0.5000 0.2500 0.0000  plane waves:   29838
 k-point   8 :   0.0000 0.5000 0.0000  plane waves:   29882
 k-point   9 :   0.2500 0.5000 0.0000  plane waves:   29838
 k-point  10 :   0.5000 0.5000 0.0000  plane waves:   29820
 k-point  11 :   0.0000 0.0000 0.3333  plane waves:   29861
 k-point  12 :   0.2500 0.0000 0.3333  plane waves:   29838
 k-point  13 :   0.2500 0.0000-0.3333  plane waves:   29838
 k-point  14 :   0.5000 0.0000 0.3333  plane waves:   29810
 k-point  15 :   0.0000 0.2500 0.3333  plane waves:   29825
 k-point  16 :   0.0000 0.2500-0.3333  plane waves:   29825
 k-point  17 :   0.2500 0.2500 0.3333  plane waves:   29837
 k-point  18 :  -0.2500 0.2500-0.3333  plane waves:   29837
 k-point  19 :   0.2500-0.2500-0.3333  plane waves:   29837
 k-point  20 :  -0.2500-0.2500 0.3333  plane waves:   29837
 k-point  21 :   0.5000 0.2500 0.3333  plane waves:   29848
 k-point  22 :   0.5000 0.2500-0.3333  plane waves:   29848
 k-point  23 :   0.0000 0.5000 0.3333  plane waves:   29840
 k-point  24 :   0.2500 0.5000 0.3333  plane waves:   29846
 k-point  25 :   0.2500 0.5000-0.3333  plane waves:   29846
 k-point  26 :   0.5000 0.5000 0.3333  plane waves:   29832

 maximum and minimum number of plane-waves per node :       963      904

 maximum number of plane-waves:     29882
 maximum index in each direction: 
   IXMAX=   17   IYMAX=   17   IZMAX=   23
   IXMIN=  -18   IYMIN=  -17   IZMIN=  -23


 parallel 3D FFT for wavefunctions:
    minimum data exchange during FFTs selected (reduces bandwidth)
 parallel 3D FFT for charge:
    minimum data exchange during FFTs selected (reduces bandwidth)


 total amount of memory used by VASP MPI-rank0    69014. kBytes
=======================================================================

   base      :      30000. kBytes
   nonl-proj :       5271. kBytes
   fftplans  :       2245. kBytes
   grid      :       5356. kBytes
   one-center:          6. kBytes
   wavefun   :      26136. kBytes

     INWAV:  cpu time      0.0016: real time      0.0019
 Broyden mixing: mesh for mixing (old mesh)
   NGX = 35   NGY = 35   NGZ = 47
  (NGX  =144   NGY  =140   NGZ  =192)
  gives a total of  57575 points

 initial charge density was supplied:
 charge density of overlapping atoms calculated
 number of electron     128.0000000 magnetization 
 keeping initial charge density in first step


--------------------------------------------------------------------------------------------------------


 Maximum index for augmentation-charges          417 (set IRDMAX)


--------------------------------------------------------------------------------------------------------


 First call to EWALD:  gamma=   0.238
 Maximum number of real-space cells 3x 3x 2
 Maximum number of reciprocal cells 3x 2x 3

    FEWALD:  cpu time      0.0037: real time      0.0037


--------------------------------------- Ionic step        1  -------------------------------------------




--------------------------------------- Iteration      1(   1)  ---------------------------------------


    POTLOK:  cpu time      0.1517: real time      0.1521
    SETDIJ:  cpu time      0.3174: real time      0.3180
    TRIAL :  cpu time      4.8903: real time      4.8940
    CORREC:  cpu time      0.0020: real time      0.0020
    --------------------------------------------
      LOOP:  cpu time      5.3771: real time      5.3818

 eigenvalue-minimisations  :  4576
 total energy-change (2. order) : 0.1055532E+04  (-0.9600002E+04)
 number of electron     128.0000000 magnetization 
 augmentation part      128.0000000 magnetization 

 Free energy of the ion-electron system (eV)
  ---------------------------------------------------
  alpha Z        PSCENC =       118.91601032
  Ewald energy   TEWEN  =     -3118.12717471
  -Hartree energ DENC   =     -1912.96877498
  -exchange      EXHF   =         0.00000000
  -V(xc)+E(xc)   XCENC  =       462.95161232
  PAW double counting   =      4145.92620535    -4138.33968194
  entropy T*S    EENTRO =        -0.00070760
  eigenvalues    EBANDS =      -112.50091968
  atomic energy  EATOM  =      5609.67562680
  ---------------------------------------------------
  free energy    TOTEN  =      1055.53219588 eV

  energy without entropy =     1055.53290347  energy(sigma->0) =     1055.53254967


--------------------------------------------------------------------------------------------------------




--------------------------------------- Iteration      1(   2)  ---------------------------------------


    TRIAL :  cpu time      5.7307: real time      5.7326
    CORREC:  cpu time      0.0003: real time      0.0003
    --------------------------------------------
      LOOP:  cpu time      5.7541: real time      5.7637

 eigenvalue-minimisations  :  6024
 total energy-change (2. order) :-0.1213144E+04  (-0.1157688E+04)
 number of electron     128.0000000 magnetization 
 augmentation part      128.0000000 magnetization 

 Free energy of the ion-electron system (eV)
  ---------------------------------------------------
  alpha Z        PSCENC =       118.91601032
  Ewald energy   TEWEN  =     -3118.12717471
  -Hartree energ DENC   =     -1912.96877498
  -exchange      EXHF   =         0.00000000
  -V(xc)+E(xc)   XCENC  =       462.95161232
  PAW double counting   =      4145.92620535    -4138.33968194
  entropy T*S    EENTRO =        -0.00000000
  eigenvalues    EBANDS =     -1325.64595924
  atomic energy  EATOM  =      5609.67562680
  ---------------------------------------------------
  free energy    TOTEN  =      -157.61213609 eV

  energy without entropy =     -157.61213609  energy(sigma->0) =     -157.61213609


--------------------------------------------------------------------------------------------------------




--------------------------------------- Iteration      1(   3)  ---------------------------------------


    TRIAL :  cpu time      5.5149: real time      5.5175
    CORREC:  cpu time      0.0003: real time      0.0003
    --------------------------------------------
      LOOP:  cpu time      5.5297: real time      5.5480

 eigenvalue-minimisations  :  5584
 total energy-change (2. order) :-0.1869391E+03  (-0.1848901E+03)
 number of electron     128.0000000 magnetization 
 augmentation part      128.0000000 magnetization 

 Free energy of the ion-electron system (eV)
  ---------------------------------------------------
  alpha Z        PSCENC =       118.91601032
  Ewald energy   TEWEN  =     -3118.12717471
  -Hartree energ DENC   =     -1912.96877498
  -exchange      EXHF   =         0.00000000
  -V(xc)+E(xc)   XCENC  =       462.95161232
  PAW double counting   =      4145.92620535    -4138.33968194
  entropy T*S    EENTRO =        -0.00000000
  eigenvalues    EBANDS =     -1512.58505608
  atomic energy  EATOM  =      5609.67562680
  ---------------------------------------------------
  free energy    TOTEN  =      -344.55123292 eV

  energy without entropy =     -344.55123292  energy(sigma->0) =     -344.55123292


--------------------------------------------------------------------------------------------------------




--------------------------------------- Iteration      1(   4)  ---------------------------------------


    TRIAL :  cpu time      5.4278: real time      5.4304
    CORREC:  cpu time      0.0004: real time      0.0004
    --------------------------------------------
      LOOP:  cpu time      5.4576: real time      5.4603

 eigenvalue-minimisations  :  5568
 total energy-change (2. order) :-0.7465025E+01  (-0.7391860E+01)
 number of electron     128.0000000 magnetization 
 augmentation part      128.0000000 magnetization 

 Free energy of the ion-electron system (eV)
  ---------------------------------------------------
  alpha Z        PSCENC =       118.91601032
  Ewald energy   TEWEN  =     -3118.12717471
  -Hartree energ DENC   =     -1912.96877498
  -exchange      EXHF   =         0.00000000
  -V(xc)+E(xc)   XCENC  =       462.95161232
  PAW double counting   =      4145.92620535    -4138.33968194
  entropy T*S    EENTRO =        -0.00000000
  eigenvalues    EBANDS =     -1520.05008069
  atomic energy  EATOM  =      5609.67562680
  ---------------------------------------------------
  free energy    TOTEN  =      -352.01625754 eV

  energy without entropy =     -352.01625754  energy(sigma->0) =     -352.01625754


--------------------------------------------------------------------------------------------------------




--------------------------------------- Iteration      1(   5)  ---------------------------------------


    TRIAL :  cpu time      5.5308: real time      5.5346
    CORREC:  cpu time      0.0003: real time      0.0003
    CHARGE:  cpu time      0.3336: real time      0.3351
    --------------------------------------------
      LOOP:  cpu time      5.8794: real time      5.8988

 eigenvalue-minimisations  :  5752
 total energy-change (2. order) :-0.3067461E+00  (-0.3061930E+00)
 number of electron     128.0000000 magnetization 
 augmentation part       -0.3909737 magnetization 

 Free energy of the ion-electron system (eV)
  ---------------------------------------------------
  alpha Z        PSCENC =       118.91601032
  Ewald energy   TEWEN  =     -3118.12717471
  -Hartree energ DENC   =     -1912.96877498
  -exchange      EXHF   =         0.00000000
  -V(xc)+E(xc)   XCENC  =       462.95161232
  PAW double counting   =      4145.92620535    -4138.33968194
  entropy T*S    EENTRO =        -0.00000000
  eigenvalues    EBANDS =     -1520.35682679
  atomic energy  EATOM  =      5609.67562680
  ---------------------------------------------------
  free energy    TOTEN  =      -352.32300364 eV

  energy without entropy =     -352.32300364  energy(sigma->0) =     -352.32300364


--------------------------------------------------------------------------------------------------------




--------------------------------------- Iteration      1(   6)  ---------------------------------------


    POTLOK:  cpu time      0.1272: real time      0.1272
    SETDIJ:  cpu time      0.3141: real time      0.3145
    TRIAL :  cpu time      3.8125: real time      3.8165
    CORREC:  cpu time      1.7139: real time      1.7147
    CHARGE:  cpu time      0.3192: real time      0.3194
    --------------------------------------------
      LOOP:  cpu time      6.3031: real time      6.3227

 eigenvalue-minimisations  :     0
 total energy-change (2. order) : 0.8409441E+02  (-0.2162275E+02)
 number of electron     128.0000000 magnetization 
 augmentation part       -0.5128628 magnetization 

 Free energy of the ion-electron system (eV)
  ---------------------------------------------------
  alpha Z        PSCENC =       118.91601032
  Ewald energy   TEWEN  =     -3118.12717471
  -Hartree energ DENC   =     -2565.12952508
  -exchange      EXHF   =         0.00000000
  -V(xc)+E(xc)   XCENC  =       525.24945293
  PAW double counting   =     47542.90822681   -47543.61167636
  entropy T*S    EENTRO =        -0.00000000
  eigenvalues    EBANDS =      -838.10953591
  atomic energy  EATOM  =      5609.67562680
  ---------------------------------------------------
  free energy    TOTEN  =      -268.22859520 eV

  energy without entropy =     -268.22859520  energy(sigma->0) =     -268.22859520


--------------------------------------------------------------------------------------------------------




--------------------------------------- Iteration      1(   7)  ---------------------------------------


    POTLOK:  cpu time      0.1264: real time      0.1264
    SETDIJ:  cpu time      0.3139: real time      0.3139
    TRIAL :  cpu time      3.7832: real time      3.7854
    CORREC:  cpu time      1.6973: real time      1.6982
    CHARGE:  cpu time      0.3209: real time      0.3209
    --------------------------------------------
      LOOP:  cpu time      6.2530: real time      6.2747

 eigenvalue-minimisations  :     0
 total energy-change (2. order) :-0.2163472E+02  (-0.2194500E+01)
 number of electron     128.0000000 magnetization 
 augmentation part       -0.5861114 magnetization 

 Free energy of the ion-electron system (eV)
  ---------------------------------------------------
  alpha Z        PSCENC =       118.91601032
  Ewald energy   TEWEN  =     -3118.12717471
  -Hartree energ DENC   =     -2262.73606987
  -exchange      EXHF   =         0.00000000
  -V(xc)+E(xc)   XCENC  =       498.63712094
  PAW double counting   =     64788.01255366   -64784.16186719
  entropy T*S    EENTRO =        -0.00000000
  eigenvalues    EBANDS =     -1140.07951517
  atomic energy  EATOM  =      5609.67562680
  ---------------------------------------------------
  free energy    TOTEN  =      -289.86331523 eV

  energy without entropy =     -289.86331523  energy(sigma->0) =     -289.86331523


--------------------------------------------------------------------------------------------------------




--------------------------------------- Iteration      1(   8)  ---------------------------------------


    POTLOK:  cpu time      0.1261: real time      0.1261
    SETDIJ:  cpu time      0.3139: real time      0.3139
    TRIAL :  cpu time      3.7921: real time      3.7943
    CORREC:  cpu time      1.6925: real time      1.6935
    CHARGE:  cpu time      0.3216: real time      0.3216
    --------------------------------------------
      LOOP:  cpu time      6.2592: real time      6.2807

 eigenvalue-minimisations  :     0
 total energy-change (2. order) :-0.2198832E+01  (-0.6584628E+00)
 number of electron     128.0000000 magnetization 
 augmentation part       -0.5681024 magnetization 

 Free energy of the ion-electron system (eV)
  ---------------------------------------------------
  alpha Z        PSCENC =       118.91601032
  Ewald energy   TEWEN  =     -3118.12717471
  -Hartree energ DENC   =     -2255.99427750
  -exchange      EXHF   =         0.00000000
  -V(xc)+E(xc)   XCENC  =       498.07656740
  PAW double counting   =     72406.45860535   -72402.06087944
  entropy T*S    EENTRO =        -0.00000000
  eigenvalues    EBANDS =     -1149.00662554
  atomic energy  EATOM  =      5609.67562680
  ---------------------------------------------------
  free energy    TOTEN  =      -292.06214732 eV

  energy without entropy =     -292.06214732  energy(sigma->0) =     -292.06214732


--------------------------------------------------------------------------------------------------------




--------------------------------------- Iteration      1(   9)  ---------------------------------------


    POTLOK:  cpu time      0.1264: real time      0.1264
    SETDIJ:  cpu time      0.3148: real time      0.3153
    TRIAL :  cpu time      3.7957: real time      3.7972
    CORREC:  cpu time      1.6973: real time      1.6983
    CHARGE:  cpu time      0.3210: real time      0.3210
    --------------------------------------------
      LOOP:  cpu time      6.2689: real time      6.2879

 eigenvalue-minimisations  :     0
 total energy-change (2. order) :-0.6567568E+00  (-0.1821311E+00)
 number of electron     128.0000000 magnetization 
 augmentation part       -0.5489105 magnetization 

 Free energy of the ion-electron system (eV)
  ---------------------------------------------------
  alpha Z        PSCENC =       118.91601032
  Ewald energy   TEWEN  =     -3118.12717471
  -Hartree energ DENC   =     -2253.30322872
  -exchange      EXHF   =         0.00000000
  -V(xc)+E(xc)   XCENC  =       498.05895164
  PAW double counting   =     75640.59787871   -75636.08471232
  entropy T*S    EENTRO =        -0.00000000
  eigenvalues    EBANDS =     -1152.45225581
  atomic energy  EATOM  =      5609.67562680
  ---------------------------------------------------
  free energy    TOTEN  =      -292.71890410 eV

  energy without entropy =     -292.71890410  energy(sigma->0) =     -292.71890410


--------------------------------------------------------------------------------------------------------




--------------------------------------- Iteration      1(  10)  ---------------------------------------


    POTLOK:  cpu time      0.1267: real time      0.1270
    SETDIJ:  cpu time      0.3152: real time      0.3152
    TRIAL :  cpu time      3.7749: real time      3.7768
    CORREC:  cpu time      1.6996: real time      1.7002
    CHARGE:  cpu time      0.3211: real time      0.3215
    --------------------------------------------
      LOOP:  cpu time      6.2678: real time      6.2714

 eigenvalue-minimisations  :     0
 total energy-change (2. order) :-0.1818337E+00  (-0.4787696E-01)
 number of electron     128.0000000 magnetization 
 augmentation part       -0.5433366 magnetization 

 Free energy of the ion-electron system (eV)
  ---------------------------------------------------
  alpha Z        PSCENC =       118.91601032
  Ewald energy   TEWEN  =     -3118.12717471
  -Hartree energ DENC   =     -2249.80256391
  -exchange      EXHF   =         0.00000000
  -V(xc)+E(xc)   XCENC  =       497.82867880
  PAW double counting   =     75232.71630658   -75228.23711511
  entropy T*S    EENTRO =        -0.00000000
  eigenvalues    EBANDS =     -1155.87050655
  atomic energy  EATOM  =      5609.67562680
  ---------------------------------------------------
  free energy    TOTEN  =      -292.90073779 eV

  energy without entropy =     -292.90073779  energy(sigma->0) =     -292.90073779


--------------------------------------------------------------------------------------------------------




--------------------------------------- Iteration      1(  11)  ---------------------------------------


    POTLOK:  cpu time      0.1262: real time      0.1262
    SETDIJ:  cpu time      0.3137: real time      0.3137
    TRIAL :  cpu time      3.7695: real time      3.7717
    CORREC:  cpu time      1.7062: real time      1.7071
    CHARGE:  cpu time      0.3199: real time      0.3199
    --------------------------------------------
      LOOP:  cpu time      6.2483: real time      6.2694

 eigenvalue-minimisations  :     0
 total energy-change (2. order) :-0.4783082E-01  (-0.1174928E-01)
 number of electron     128.0000000 magnetization 
 augmentation part       -0.5427082 magnetization 

 Free energy of the ion-electron system (eV)
  ---------------------------------------------------
  alpha Z        PSCENC =       118.91601032
  Ewald energy   TEWEN  =     -3118.12717471
  -Hartree energ DENC   =     -2249.31557251
  -exchange      EXHF   =         0.00000000
  -V(xc)+E(xc)   XCENC  =       497.79517106
  PAW double counting   =     74262.16461053   -74257.73753413
  entropy T*S    EENTRO =        -0.00000000
  eigenvalues    EBANDS =     -1156.31970597
  atomic energy  EATOM  =      5609.67562680
  ---------------------------------------------------
  free energy    TOTEN  =      -292.94856862 eV

  energy without entropy =     -292.94856862  energy(sigma->0) =     -292.94856862


--------------------------------------------------------------------------------------------------------




--------------------------------------- Iteration      1(  12)  ---------------------------------------


    POTLOK:  cpu time      0.1260: real time      0.1260
    SETDIJ:  cpu time      0.3137: real time      0.3137
    TRIAL :  cpu time      3.7787: real time      3.7811
    CORREC:  cpu time      1.7003: real time      1.7013
    CHARGE:  cpu time      0.3197: real time      0.3197
    --------------------------------------------
      LOOP:  cpu time      6.2517: real time      6.2721

 eigenvalue-minimisations  :     0
 total energy-change (2. order) :-0.1174131E-01  (-0.2902500E-02)
 number of electron     128.0000000 magnetization 
 augmentation part       -0.5437158 magnetization 

 Free energy of the ion-electron system (eV)
  ---------------------------------------------------
  alpha Z        PSCENC =       118.91601032
  Ewald energy   TEWEN  =     -3118.12717471
  -Hartree energ DENC   =     -2248.55472369
  -exchange      EXHF   =         0.00000000
  -V(xc)+E(xc)   XCENC  =       497.73584192
  PAW double counting   =     73908.49282356   -73904.07105980
  entropy T*S    EENTRO =        -0.00000000
  eigenvalues    EBANDS =     -1157.02765433
  atomic energy  EATOM  =      5609.67562680
  ---------------------------------------------------
  free energy    TOTEN  =      -292.96030993 eV

  energy without entropy =     -292.96030993  energy(sigma->0) =     -292.96030993


--------------------------------------------------------------------------------------------------------




--------------------------------------- Iteration      1(  13)  ---------------------------------------


    POTLOK:  cpu time      0.1260: real time      0.1260
    SETDIJ:  cpu time      0.3134: real time      0.3137
    TRIAL :  cpu time      3.8243: real time      3.8264
    CORREC:  cpu time      1.7028: real time      1.7035
    CHARGE:  cpu time      0.3196: real time      0.3200
    --------------------------------------------
      LOOP:  cpu time      6.2979: real time      6.3200

 eigenvalue-minimisations  :     0
 total energy-change (2. order) :-0.2897277E-02  (-0.6249371E-03)
 number of electron     128.0000000 magnetization 
 augmentation part       -0.5442858 magnetization 

 Free energy of the ion-electron system (eV)
  ---------------------------------------------------
  alpha Z        PSCENC =       118.91601032
  Ewald energy   TEWEN  =     -3118.12717471
  -Hartree energ DENC   =     -2248.30928133
  -exchange      EXHF   =         0.00000000
  -V(xc)+E(xc)   XCENC  =       497.71571500
  PAW double counting   =     73828.88318524   -73824.45619579
  entropy T*S    EENTRO =        -0.00000000
  eigenvalues    EBANDS =     -1157.26109273
  atomic energy  EATOM  =      5609.67562680
  ---------------------------------------------------
  free energy    TOTEN  =      -292.96320721 eV

  energy without entropy =     -292.96320721  energy(sigma->0) =     -292.96320721


--------------------------------------------------------------------------------------------------------




--------------------------------------- Iteration      1(  14)  ---------------------------------------


    POTLOK:  cpu time      0.1258: real time      0.1259
    SETDIJ:  cpu time      0.3140: real time      0.3140
    TRIAL :  cpu time      3.7998: real time      3.8019
    CORREC:  cpu time      1.7159: real time      1.7169
    CHARGE:  cpu time      0.3223: real time      0.3224
    --------------------------------------------
      LOOP:  cpu time      6.2923: real time      6.3102

 eigenvalue-minimisations  :     0
 total energy-change (2. order) :-0.6223863E-03  (-0.1361571E-03)
 number of electron     128.0000000 magnetization 
 augmentation part       -0.5444213 magnetization 

 Free energy of the ion-electron system (eV)
  ---------------------------------------------------
  alpha Z        PSCENC =       118.91601032
  Ewald energy   TEWEN  =     -3118.12717471
  -Hartree energ DENC   =     -2248.30951627
  -exchange      EXHF   =         0.00000000
  -V(xc)+E(xc)   XCENC  =       497.71092498
  PAW double counting   =     73786.94649515   -73782.51677528
  entropy T*S    EENTRO =        -0.00000000
  eigenvalues    EBANDS =     -1157.25942058
  atomic energy  EATOM  =      5609.67562680
  ---------------------------------------------------
  free energy    TOTEN  =      -292.96382959 eV

  energy without entropy =     -292.96382959  energy(sigma->0) =     -292.96382959


--------------------------------------------------------------------------------------------------------




--------------------------------------- Iteration      1(  15)  ---------------------------------------


    POTLOK:  cpu time      0.1258: real time      0.1258
    SETDIJ:  cpu time      0.3177: real time      0.3177
    TRIAL :  cpu time      3.7692: real time      3.7713
    CORREC:  cpu time      1.7163: real time      1.7173
    CHARGE:  cpu time      0.3267: real time      0.3267
    --------------------------------------------
      LOOP:  cpu time      6.2858: real time      6.2893

 eigenvalue-minimisations  :     0
 total energy-change (2. order) :-0.1353308E-03  (-0.2869548E-04)
 number of electron     128.0000000 magnetization 
 augmentation part       -0.5444055 magnetization 

 Free energy of the ion-electron system (eV)
  ---------------------------------------------------
  alpha Z        PSCENC =       118.91601032
  Ewald energy   TEWEN  =     -3118.12717471
  -Hartree energ DENC   =     -2248.31180742
  -exchange      EXHF   =         0.00000000
  -V(xc)+E(xc)   XCENC  =       497.71064042
  PAW double counting   =     73750.60193762   -73746.17263793
  entropy T*S    EENTRO =        -0.00000000
  eigenvalues    EBANDS =     -1157.25656001
  atomic energy  EATOM  =      5609.67562680
  ---------------------------------------------------
  free energy    TOTEN  =      -292.96396492 eV

  energy without entropy =     -292.96396492  energy(sigma->0) =     -292.96396492


--------------------------------------------------------------------------------------------------------




--------------------------------------- Iteration      1(  16)  ---------------------------------------


    POTLOK:  cpu time      0.1258: real time      0.1258
    SETDIJ:  cpu time      0.3134: real time      0.3139
    TRIAL :  cpu time      3.7670: real time      3.7686
    CORREC:  cpu time      1.6957: real time      1.6968
    CHARGE:  cpu time      0.3212: real time      0.3212
    --------------------------------------------
      LOOP:  cpu time      6.2357: real time      6.2562

 eigenvalue-minimisations  :     0
 total energy-change (2. order) :-0.2872890E-04  (-0.6445360E-05)
 number of electron     128.0000000 magnetization 
 augmentation part       -0.5443796 magnetization 

 Free energy of the ion-electron system (eV)
  ---------------------------------------------------
  alpha Z        PSCENC =       118.91601032
  Ewald energy   TEWEN  =     -3118.12717471
  -Hartree energ DENC   =     -2248.30834629
  -exchange      EXHF   =         0.00000000
  -V(xc)+E(xc)   XCENC  =       497.70906643
  PAW double counting   =     73737.82932475   -73733.40026701
  entropy T*S    EENTRO =        -0.00000000
  eigenvalues    EBANDS =     -1157.25823394
  atomic energy  EATOM  =      5609.67562680
  ---------------------------------------------------
  free energy    TOTEN  =      -292.96399365 eV

  energy without entropy =     -292.96399365  energy(sigma->0) =     -292.96399365


--------------------------------------------------------------------------------------------------------




--------------------------------------- Iteration      1(  17)  ---------------------------------------


    POTLOK:  cpu time      0.1259: real time      0.1262
    SETDIJ:  cpu time      0.3135: real time      0.3135
    TRIAL :  cpu time      3.8075: real time      3.8096
    CORREC:  cpu time      1.6977: real time      1.6983
    CHARGE:  cpu time      0.3212: real time      0.3217
    --------------------------------------------
      LOOP:  cpu time      6.2793: real time      6.2998

 eigenvalue-minimisations  :     0
 total energy-change (2. order) :-0.6442162E-05  (-0.1484177E-05)
 number of electron     128.0000000 magnetization 
 augmentation part       -0.5443726 magnetization 

 Free energy of the ion-electron system (eV)
  ---------------------------------------------------
  alpha Z        PSCENC =       118.91601032
  Ewald energy   TEWEN  =     -3118.12717471
  -Hartree energ DENC   =     -2248.32838803
  -exchange      EXHF   =         0.00000000
  -V(xc)+E(xc)   XCENC  =       497.71062220
  PAW double counting   =     73741.14414959   -73736.71548178
  entropy T*S    EENTRO =        -0.00000000
  eigenvalues    EBANDS =     -1157.23936447
  atomic energy  EATOM  =      5609.67562680
  ---------------------------------------------------
  free energy    TOTEN  =      -292.96400010 eV

  energy without entropy =     -292.96400010  energy(sigma->0) =     -292.96400010


--------------------------------------------------------------------------------------------------------




--------------------------------------- Iteration      1(  18)  ---------------------------------------


    POTLOK:  cpu time      0.1258: real time      0.1258
    SETDIJ:  cpu time      0.3153: real time      0.3154
    TRIAL :  cpu time      3.8155: real time      3.8183
    CORREC:  cpu time      1.6959: real time      1.6969
    CHARGE:  cpu time      0.3203: real time      0.3203
    --------------------------------------------
      LOOP:  cpu time      6.2855: real time      6.3063

 eigenvalue-minimisations  :     0
 total energy-change (2. order) :-0.1531283E-05  (-0.4209600E-06)
 number of electron     128.0000000 magnetization 
 augmentation part       -0.5443698 magnetization 

 Free energy of the ion-electron system (eV)
  ---------------------------------------------------
  alpha Z        PSCENC =       118.91601032
  Ewald energy   TEWEN  =     -3118.12717471
  -Hartree energ DENC   =     -2248.32951252
  -exchange      EXHF   =         0.00000000
  -V(xc)+E(xc)   XCENC  =       497.71053520
  PAW double counting   =     73747.66942375   -73743.24067310
  entropy T*S    EENTRO =        -0.00000000
  eigenvalues    EBANDS =     -1157.23823736
  atomic energy  EATOM  =      5609.67562680
  ---------------------------------------------------
  free energy    TOTEN  =      -292.96400163 eV

  energy without entropy =     -292.96400163  energy(sigma->0) =     -292.96400163


--------------------------------------------------------------------------------------------------------




--------------------------------------- Iteration      1(  19)  ---------------------------------------


    POTLOK:  cpu time      0.1258: real time      0.1258
    SETDIJ:  cpu time      0.3138: real time      0.3143
    TRIAL :  cpu time      3.7687: real time      3.7706
    CORREC:  cpu time      1.6988: real time      1.6998
    CHARGE:  cpu time      0.3196: real time      0.3196
    --------------------------------------------
      LOOP:  cpu time      6.2392: real time      6.2596

 eigenvalue-minimisations  :     0
 total energy-change (2. order) :-0.4427420E-06  (-0.1392497E-06)
 number of electron     128.0000000 magnetization 
 augmentation part       -0.5443669 magnetization 

 Free energy of the ion-electron system (eV)
  ---------------------------------------------------
  alpha Z        PSCENC =       118.91601032
  Ewald energy   TEWEN  =     -3118.12717471
  -Hartree energ DENC   =     -2248.33090397
  -exchange      EXHF   =         0.00000000
  -V(xc)+E(xc)   XCENC  =       497.71073313
  PAW double counting   =     73752.32674513   -73747.89799030
  entropy T*S    EENTRO =        -0.00000000
  eigenvalues    EBANDS =     -1157.23704847
  atomic energy  EATOM  =      5609.67562680
  ---------------------------------------------------
  free energy    TOTEN  =      -292.96400207 eV

  energy without entropy =     -292.96400207  energy(sigma->0) =     -292.96400207


--------------------------------------------------------------------------------------------------------




--------------------------------------- Iteration      1(  20)  ---------------------------------------


    POTLOK:  cpu time      0.1263: real time      0.1263
    SETDIJ:  cpu time      0.3127: real time      0.3131
    TRIAL :  cpu time      3.7809: real time      3.7832
    CORREC:  cpu time      1.6920: real time      1.6927
    CHARGE:  cpu time      0.3210: real time      0.3215
    --------------------------------------------
      LOOP:  cpu time      6.2630: real time      6.2672

 eigenvalue-minimisations  :     0
 total energy-change (2. order) :-0.1462759E-06  (-0.3121176E-07)
 number of electron     128.0000000 magnetization 
 augmentation part       -0.5443663 magnetization 

 Free energy of the ion-electron system (eV)
  ---------------------------------------------------
  alpha Z        PSCENC =       118.91601032
  Ewald energy   TEWEN  =     -3118.12717471
  -Hartree energ DENC   =     -2248.33339852
  -exchange      EXHF   =         0.00000000
  -V(xc)+E(xc)   XCENC  =       497.71098224
  PAW double counting   =     73754.68111399   -73750.25239392
  entropy T*S    EENTRO =        -0.00000000
  eigenvalues    EBANDS =     -1157.23476841
  atomic energy  EATOM  =      5609.67562680
  ---------------------------------------------------
  free energy    TOTEN  =      -292.96400222 eV

  energy without entropy =     -292.96400222  energy(sigma->0) =     -292.96400222


--------------------------------------------------------------------------------------------------------




--------------------------------------- Iteration      1(  21)  ---------------------------------------


    POTLOK:  cpu time      0.1259: real time      0.1259
    SETDIJ:  cpu time      0.3150: real time      0.3150
    TRIAL :  cpu time      3.7688: real time      3.7715
    CORREC:  cpu time      1.6934: real time      1.6945
    EDDIAG:  cpu time      0.9291: real time      0.9308
    CHARGE:  cpu time      0.3198: real time      0.3203
    --------------------------------------------
      LOOP:  cpu time      7.1813: real time      7.1875

 eigenvalue-minimisations  :     0
 total energy-change (2. order) :-0.3146124E-07  (-0.3114004E-07)
 number of electron     128.0000000 magnetization 
 augmentation part       -0.5443673 magnetization 

 Free energy of the ion-electron system (eV)
  ---------------------------------------------------
  alpha Z        PSCENC =       118.91601032
  Ewald energy   TEWEN  =     -3118.12717471
  -Hartree energ DENC   =     -2248.33311046
  -exchange      EXHF   =         0.00000000
  -V(xc)+E(xc)   XCENC  =       497.71095152
  PAW double counting   =     73755.16689991   -73750.73817844
  entropy T*S    EENTRO =        -0.00000000
  eigenvalues    EBANDS =     -1157.23502718
  atomic energy  EATOM  =      5609.67562680
  ---------------------------------------------------
  free energy    TOTEN  =      -292.96400225 eV

  energy without entropy =     -292.96400225  energy(sigma->0) =     -292.96400225


--------------------------------------------------------------------------------------------------------


  average scaling for gradient   0.8735


 average (electrostatic) potential at core
  the test charge radii are     0.5902  0.5770  0.4325
  (the norm of the test charge is              1.0000)
       1-102.4503       2-102.4503       3-102.4502       4-102.4501       5-102.4499
       6-102.4499       7-102.4501       8-102.4501       9-101.1405      10-101.1405
      11-101.1406      12-101.1406      13-101.1407      14-101.1407      15-101.1405
      16-101.1406      17 -85.5095      18 -85.5095      19 -85.5095      20 -85.5094
      21 -85.5094      22 -85.5094      23 -85.5094      24 -85.5095      25 -43.8647
      26 -43.8646      27 -43.8652      28 -43.8651      29 -43.8645      30 -43.8645
      31 -43.8645      32 -43.8644      33 -44.1021      34 -44.1025      35 -44.1031
      36 -44.1024      37 -44.1023      38 -44.1018      39 -44.1017      40 -44.1021



 E-fermi :  -1.2421     XC(G=0):  -8.6431     alpha+bet : -6.6399

 Fermi energy:        -1.2420746380

 k-point     1 :       0.0000    0.0000    0.0000
  band No.  band energies     occupation 
      1     -20.3057      2.00000
      2     -20.1300      2.00000
      3     -20.0265      2.00000
      4     -19.9963      2.00000
      5     -19.9797      2.00000
      6     -19.9727      2.00000
      7     -19.9576      2.00000
      8     -19.9220      2.00000
      9     -18.3282      2.00000
     10     -18.2083      2.00000
     11     -18.1469      2.00000
     12     -18.1136      2.00000
     13     -18.0801      2.00000
     14     -18.0724      2.00000
     15     -17.9664      2.00000
     16     -17.9184      2.00000
     17     -10.5401      2.00000
     18     -10.3761      2.00000
     19     -10.2057      2.00000
     20     -10.1655      2.00000
     21     -10.1489      2.00000
     22     -10.0143      2.00000
     23     -10.0128      2.00000
     24      -9.9984      2.00000
     25      -9.1911      2.00000
     26      -9.1699      2.00000
     27      -9.0431      2.00000
     28      -8.9399      2.00000
     29      -8.9321      2.00000
     30      -8.8764      2.00000
     31      -8.6504      2.00000
     32      -8.6143      2.00000
     33      -5.7455      2.00000
     34      -5.6294      2.00000
     35      -5.4200      2.00000
     36      -5.3953      2.00000
     37      -5.3713      2.00000
     38      -5.2474      2.00000
     39      -5.2118      2.00000
     40      -5.0337      2.00000
     41      -4.8819      2.00000
     42      -4.8301      2.00000
     43      -4.8173      2.00000
     44      -4.7892      2.00000
     45      -4.6091      2.00000
     46      -4.5915      2.00000
     47      -4.5661      2.00000
     48      -4.5459      2.00000
     49      -3.5462      2.00000
     50      -3.5338      2.00000
     51      -3.5153      2.00000
     52      -3.5130      2.00000
     53      -3.2712      2.00000
     54      -3.2533      2.00000
     55      -3.1429      2.00000
     56      -3.1075      2.00000
     57      -2.2068      2.00000
     58      -1.8282      2.00000
     59      -1.7139      2.00000
     60      -1.4963      2.00000
     61      -1.4409      2.00000
     62      -1.4386      2.00000
     63      -1.4159      2.00000
     64      -1.3612      2.00000
     65       3.9706      0.00000
     66       4.3282      0.00000
     67       4.3745      0.00000
     68       4.4509      0.00000
     69       4.6504      0.00000
     70       4.6839      0.00000
     71       5.0055      0.00000
     72       5.1048      0.00000
     73       5.1978      0.00000
     74       5.4164      0.00000
     75       5.4760      0.00000
     76       5.6577      0.00000
     77       5.8003      0.00000
     78       6.1500      0.00000
     79       6.1830      0.00000
     80       6.3375      0.00000
     81       6.4265      0.00000
     82       6.6887      0.00000
     83       7.5737      0.00000
     84       7.6316      0.00000
     85       7.7216      0.00000
     86       7.8571      0.00000
     87       8.1343      0.00000
     88       8.5688      0.00000

 k-point     2 :       0.2500    0.0000    0.0000
  band No.  band energies     occupation 
      1     -20.2754      2.00000
      2     -20.1132      2.00000
      3     -20.0951      2.00000
      4     -20.0221      2.00000
      5     -19.9733      2.00000
      6     -19.9541      2.00000
      7     -19.9382      2.00000
      8     -19.9194      2.00000
      9     -18.3140      2.00000
     10     -18.2073      2.00000
     11     -18.1984      2.00000
     12     -18.1278      2.00000
     13     -18.0596      2.00000
     14     -18.0210      2.00000
     15     -17.9770      2.00000
     16     -17.9323      2.00000
     17     -10.5116      2.00000
     18     -10.3545      2.00000
     19     -10.3159      2.00000
     20     -10.2051      2.00000
     21     -10.0767      2.00000
     22     -10.0120      2.00000
     23      -9.9922      2.00000
[...]
     50      -3.6166      2.00000
     51      -3.4773      2.00000
     52      -3.4768      2.00000
     53      -3.3182      2.00000
     54      -3.3176      2.00000
     55      -3.2645      2.00000
     56      -3.2644      2.00000
     57      -1.8273      2.00000
     58      -1.8272      2.00000
     59      -1.6524      2.00000
     60      -1.6523      2.00000
     61      -1.4956      2.00000
     62      -1.4955      2.00000
     63      -1.3964      2.00000
     64      -1.3963      2.00000
     65       4.3130      0.00000
     66       4.3132      0.00000
     67       4.5148      0.00000
     68       4.5148      0.00000
     69       4.8315      0.00000
     70       4.8318      0.00000
     71       4.9287      0.00000
     72       4.9288      0.00000
     73       5.5643      0.00000
     74       5.5644      0.00000
     75       5.7659      0.00000
     76       5.7659      0.00000
     77       6.1166      0.00000
     78       6.1167      0.00000
     79       6.3050      0.00000
     80       6.3051      0.00000
     81       6.5326      0.00000
     82       6.5327      0.00000
     83       6.7809      0.00000
     84       6.7812      0.00000
     85       7.4031      0.00000
     86       7.4033      0.00000
     87       7.8104      0.00000
     88       7.8178      0.00000

 k-point    25 :       0.2500    0.5000   -0.3333
  band No.  band energies     occupation 
      1     -20.1116      2.00000
      2     -20.1112      2.00000
      3     -20.0523      2.00000
      4     -20.0518      2.00000
      5     -20.0184      2.00000
      6     -20.0180      2.00000
      7     -19.9845      2.00000
      8     -19.9839      2.00000
      9     -18.1566      2.00000
     10     -18.1564      2.00000
     11     -18.1294      2.00000
     12     -18.1292      2.00000
     13     -18.0619      2.00000
     14     -18.0617      2.00000
     15     -18.0548      2.00000
     16     -18.0547      2.00000
     17     -10.3018      2.00000
     18     -10.3014      2.00000
     19     -10.2443      2.00000
     20     -10.2439      2.00000
     21     -10.1026      2.00000
     22     -10.1021      2.00000
     23     -10.0812      2.00000
     24     -10.0807      2.00000
     25      -9.0667      2.00000
     26      -9.0665      2.00000
     27      -9.0020      2.00000
     28      -9.0019      2.00000
     29      -8.8520      2.00000
     30      -8.8517      2.00000
     31      -8.8340      2.00000
     32      -8.8339      2.00000
     33      -5.4808      2.00000
     34      -5.4807      2.00000
     35      -5.3894      2.00000
     36      -5.3891      2.00000
     37      -5.0847      2.00000
     38      -5.0846      2.00000
     39      -5.0476      2.00000
     40      -5.0474      2.00000
     41      -4.9678      2.00000
     42      -4.9677      2.00000
     43      -4.8936      2.00000
     44      -4.8934      2.00000
     45      -4.7154      2.00000
     46      -4.7154      2.00000
     47      -4.6384      2.00000
     48      -4.6384      2.00000
     49      -3.6169      2.00000
     50      -3.6167      2.00000
     51      -3.4773      2.00000
     52      -3.4768      2.00000
     53      -3.3181      2.00000
     54      -3.3178      2.00000
     55      -3.2646      2.00000
     56      -3.2642      2.00000
     57      -1.8273      2.00000
     58      -1.8272      2.00000
     59      -1.6524      2.00000
     60      -1.6523      2.00000
     61      -1.4956      2.00000
     62      -1.4955      2.00000
     63      -1.3964      2.00000
     64      -1.3963      2.00000
     65       4.3131      0.00000
     66       4.3132      0.00000
     67       4.5146      0.00000
     68       4.5149      0.00000
     69       4.8317      0.00000
     70       4.8317      0.00000
     71       4.9286      0.00000
     72       4.9288      0.00000
     73       5.5643      0.00000
     74       5.5643      0.00000
     75       5.7659      0.00000
     76       5.7660      0.00000
     77       6.1166      0.00000
     78       6.1168      0.00000
     79       6.3050      0.00000
     80       6.3051      0.00000
     81       6.5326      0.00000
     82       6.5326      0.00000
     83       6.7809      0.00000
     84       6.7812      0.00000
     85       7.4026      0.00000
     86       7.4034      0.00000
     87       7.8098      0.00000
     88       7.8111      0.00000

 k-point    26 :       0.5000    0.5000    0.3333
  band No.  band energies     occupation 
      1     -20.0685      2.00000
      2     -20.0683      2.00000
      3     -20.0680      2.00000
      4     -20.0679      2.00000
      5     -20.0154      2.00000
      6     -20.0152      2.00000
      7     -20.0149      2.00000
      8     -20.0148      2.00000
      9     -18.1438      2.00000
     10     -18.1437      2.00000
     11     -18.1436      2.00000
     12     -18.1435      2.00000
     13     -18.0583      2.00000
     14     -18.0582      2.00000
     15     -18.0581      2.00000
     16     -18.0580      2.00000
     17     -10.2665      2.00000
     18     -10.2665      2.00000
     19     -10.2660      2.00000
     20     -10.2660      2.00000
     21     -10.1041      2.00000
     22     -10.1040      2.00000
     23     -10.1036      2.00000
     24     -10.1035      2.00000
     25      -8.9632      2.00000
     26      -8.9630      2.00000
     27      -8.9626      2.00000
     28      -8.9626      2.00000
     29      -8.9027      2.00000
     30      -8.9024      2.00000
     31      -8.9021      2.00000
     32      -8.9020      2.00000
     33      -5.3307      2.00000
     34      -5.3305      2.00000
     35      -5.3304      2.00000
     36      -5.3303      2.00000
     37      -5.1711      2.00000
     38      -5.1709      2.00000
     39      -5.1708      2.00000
     40      -5.1708      2.00000
     41      -4.9432      2.00000
     42      -4.9432      2.00000
     43      -4.9432      2.00000
     44      -4.9431      2.00000
     45      -4.6654      2.00000
     46      -4.6654      2.00000
     47      -4.6652      2.00000
     48      -4.6652      2.00000
     49      -3.5191      2.00000
     50      -3.5190      2.00000
     51      -3.5188      2.00000
     52      -3.5186      2.00000
     53      -3.3547      2.00000
     54      -3.3545      2.00000
     55      -3.3544      2.00000
     56      -3.3541      2.00000
     57      -1.7116      2.00000
     58      -1.7116      2.00000
     59      -1.7115      2.00000
     60      -1.7114      2.00000
     61      -1.4686      2.00000
     62      -1.4685      2.00000
     63      -1.4685      2.00000
     64      -1.4684      2.00000
     65       4.4008      0.00000
     66       4.4009      0.00000
     67       4.4010      0.00000
     68       4.4011      0.00000
     69       4.8903      0.00000
     70       4.8905      0.00000
     71       4.8906      0.00000
     72       4.8907      0.00000
     73       5.8135      0.00000
     74       5.8135      0.00000
     75       5.8136      0.00000
     76       5.8136      0.00000
     77       6.1547      0.00000
     78       6.1547      0.00000
     79       6.1549      0.00000
     80       6.1549      0.00000
     81       6.8540      0.00000
     82       6.8541      0.00000
     83       6.8542      0.00000
     84       6.8544      0.00000
     85       7.3455      0.00000
     86       7.3456      0.00000
     87       7.3457      0.00000
     88       7.3474      0.00000


--------------------------------------------------------------------------------------------------------


 soft charge-density along one line, spin component           1
         0         1         2         3         4         5         6         7         8         9
 total charge-density along one line

 pseudopotential strength for first ion, spin component:           1
 19.921  27.896  -0.016   0.017  -0.009  -0.024   0.026  -0.013
 27.896  39.063  -0.022   0.024  -0.012  -0.034   0.036  -0.018
 -0.016  -0.022  -5.877   0.000  -0.001  -8.816   0.000  -0.001
  0.017   0.024   0.000  -5.877  -0.000   0.000  -8.817  -0.001
 -0.009  -0.012  -0.001  -0.000  -5.877  -0.001  -0.001  -8.816
 -0.024  -0.034  -8.816   0.000  -0.001 -13.204   0.000  -0.002
  0.026   0.036   0.000  -8.817  -0.001   0.000 -13.205  -0.001
 -0.013  -0.018  -0.001  -0.001  -8.816  -0.002  -0.001 -13.205
 total augmentation occupancy for first ion, spin component:           1
 13.949  -6.774  -1.637   2.129  -0.711   0.848  -1.172   0.333
 -6.774   3.359   1.097  -1.458   0.456  -0.530   0.766  -0.189
 -1.637   1.097   8.101  -1.271  -2.069  -3.287   0.751   1.157
  2.129  -1.458  -1.271  10.529  -0.787   0.751  -4.689   0.439
 -0.711   0.456  -2.069  -0.787   6.687   1.157   0.439  -2.473
  0.848  -0.530  -3.287   0.751   1.157   1.375  -0.400  -0.568
 -1.172   0.766   0.751  -4.689   0.439  -0.400   2.105  -0.215
  0.333  -0.189   1.157   0.439  -2.473  -0.568  -0.215   0.960


------------------------ aborting loop because EDIFF is reached ----------------------------------------


    FORLOC:  cpu time      0.0096: real time      0.0096
    FORNL :  cpu time      0.8287: real time      0.8293
    FORCOR:  cpu time      0.4399: real time      0.4404
    OFIELD:  cpu time      0.0018: real time      0.0018

 VOLUME and BASIS-vectors are now :
 -----------------------------------------------------------------------------
  energy-cutoff  :     1000.00
  volume of cell :      415.65
      direct lattice vectors                 reciprocal lattice vectors
     6.856000000  0.000000000  0.000000000     0.145857643  0.000000000  0.000000000
     0.000000000  6.628000000  0.000000000     0.000000000  0.150875075  0.000000000
     0.000000000  0.000000000  9.147000000     0.000000000  0.000000000  0.109325462

  length of vectors
     6.856000000  6.628000000  9.147000000     0.145857643  0.150875075  0.109325462


 FORCES acting on ions:
    Electron-Ion                     Ewald-Force                    Non-Local-Force
 -----------------------------------------------------------------------------------------------
   -.533E+01 -.375E+02 0.828E+02   0.104E+02 0.470E+02 -.931E+02   -.508E+01 -.963E+01 0.105E+02
   0.532E+01 0.375E+02 -.828E+02   -.104E+02 -.470E+02 0.931E+02   0.508E+01 0.963E+01 -.105E+02
   0.532E+01 0.375E+02 0.828E+02   -.104E+02 -.469E+02 -.931E+02   0.508E+01 0.963E+01 0.105E+02
   -.532E+01 -.375E+02 -.828E+02   0.104E+02 0.470E+02 0.931E+02   -.508E+01 -.963E+01 -.105E+02
   0.532E+01 -.375E+02 -.828E+02   -.104E+02 0.469E+02 0.931E+02   0.508E+01 -.963E+01 -.105E+02
   -.532E+01 0.375E+02 0.828E+02   0.104E+02 -.469E+02 -.931E+02   -.508E+01 0.963E+01 0.105E+02
   -.532E+01 0.375E+02 -.828E+02   0.104E+02 -.470E+02 0.931E+02   -.508E+01 0.963E+01 -.105E+02
   0.533E+01 -.375E+02 0.828E+02   -.104E+02 0.470E+02 -.931E+02   0.508E+01 -.963E+01 0.105E+02
   -.330E+01 0.585E+02 -.143E+03   0.393E+01 -.731E+02 0.174E+03   -.647E+00 0.149E+02 -.316E+02
   0.330E+01 -.585E+02 0.143E+03   -.393E+01 0.731E+02 -.174E+03   0.647E+00 -.149E+02 0.316E+02
   0.330E+01 -.585E+02 -.143E+03   -.393E+01 0.731E+02 0.174E+03   0.646E+00 -.149E+02 -.316E+02
   -.330E+01 0.585E+02 0.143E+03   0.393E+01 -.731E+02 -.174E+03   -.647E+00 0.149E+02 0.316E+02
   0.329E+01 0.585E+02 0.143E+03   -.393E+01 -.731E+02 -.174E+03   0.645E+00 0.149E+02 0.316E+02
   -.329E+01 -.585E+02 -.143E+03   0.393E+01 0.731E+02 0.174E+03   -.645E+00 -.149E+02 -.316E+02
   -.330E+01 -.585E+02 0.143E+03   0.393E+01 0.731E+02 -.174E+03   -.647E+00 -.148E+02 0.316E+02
   0.329E+01 0.585E+02 -.143E+03   -.393E+01 -.731E+02 0.174E+03   0.646E+00 0.149E+02 -.316E+02
   0.312E+01 -.138E+02 0.381E+02   -.325E+01 0.943E+01 -.302E+02   0.133E+00 0.442E+01 -.796E+01
   -.312E+01 0.138E+02 -.381E+02   0.325E+01 -.943E+01 0.302E+02   -.133E+00 -.442E+01 0.796E+01
   -.312E+01 0.138E+02 0.381E+02   0.325E+01 -.944E+01 -.302E+02   -.133E+00 -.443E+01 -.796E+01
   0.312E+01 -.138E+02 -.381E+02   -.325E+01 0.944E+01 0.302E+02   0.133E+00 0.443E+01 0.796E+01
   -.311E+01 -.138E+02 -.381E+02   0.325E+01 0.946E+01 0.302E+02   -.133E+00 0.443E+01 0.797E+01
   0.311E+01 0.138E+02 0.381E+02   -.325E+01 -.946E+01 -.302E+02   0.133E+00 -.443E+01 -.797E+01
   0.312E+01 0.138E+02 -.381E+02   -.326E+01 -.944E+01 0.302E+02   0.133E+00 -.443E+01 0.796E+01
   -.312E+01 -.138E+02 0.381E+02   0.325E+01 0.944E+01 -.302E+02   -.133E+00 0.443E+01 -.796E+01
   -.207E+02 0.195E+02 0.435E+02   0.237E+02 -.223E+02 -.490E+02   -.317E+01 0.288E+01 0.573E+01
   0.207E+02 -.195E+02 -.435E+02   -.237E+02 0.223E+02 0.490E+02   0.317E+01 -.288E+01 -.573E+01
   0.207E+02 -.195E+02 0.435E+02   -.237E+02 0.223E+02 -.490E+02   0.317E+01 -.289E+01 0.573E+01
   -.207E+02 0.195E+02 -.435E+02   0.237E+02 -.223E+02 0.490E+02   -.317E+01 0.289E+01 -.573E+01
   0.207E+02 0.195E+02 -.435E+02   -.237E+02 -.223E+02 0.490E+02   0.317E+01 0.288E+01 -.573E+01
   -.207E+02 -.195E+02 0.435E+02   0.237E+02 0.223E+02 -.490E+02   -.317E+01 -.288E+01 0.573E+01
   -.207E+02 -.195E+02 -.435E+02   0.237E+02 0.223E+02 0.490E+02   -.317E+01 -.288E+01 -.573E+01
   0.207E+02 0.195E+02 0.435E+02   -.237E+02 -.223E+02 -.490E+02   0.317E+01 0.288E+01 0.573E+01
   0.342E+02 -.388E+02 0.152E+02   -.387E+02 0.440E+02 -.161E+02   0.466E+01 -.544E+01 0.933E+00
   -.342E+02 0.388E+02 -.152E+02   0.387E+02 -.440E+02 0.161E+02   -.466E+01 0.544E+01 -.933E+00
   -.342E+02 0.388E+02 0.152E+02   0.387E+02 -.440E+02 -.161E+02   -.466E+01 0.544E+01 0.933E+00
   0.342E+02 -.388E+02 -.152E+02   -.387E+02 0.440E+02 0.161E+02   0.466E+01 -.544E+01 -.933E+00
   -.342E+02 -.388E+02 -.152E+02   0.387E+02 0.440E+02 0.161E+02   -.466E+01 -.544E+01 -.933E+00
   0.342E+02 0.388E+02 0.152E+02   -.387E+02 -.440E+02 -.161E+02   0.466E+01 0.544E+01 0.933E+00
   0.342E+02 0.388E+02 -.152E+02   -.387E+02 -.440E+02 0.161E+02   0.466E+01 0.544E+01 -.933E+00
   -.342E+02 -.388E+02 0.152E+02   0.387E+02 0.440E+02 -.161E+02   -.466E+01 -.544E+01 0.933E+00
 -----------------------------------------------------------------------------------------------
   0.209E-02 -.139E-02 -.142E-03   -.213E-13 0.711E-13 -.128E-12   -.210E-02 0.138E-02 0.146E-03


 POSITION                                       TOTAL-FORCE (eV/Angst)
 -----------------------------------------------------------------------------------
      0.98679      1.10121      0.99078        -0.056366     -0.173479      0.247745
      5.86921      5.52682      8.15622         0.056360      0.173455     -0.247680
      2.44123      5.52683      5.56428         0.055771      0.174237      0.249732
      4.41477      1.10120      3.58272        -0.055792     -0.174249     -0.249706
      5.86923      4.41522      3.58273         0.056025     -0.174769     -0.250799
      0.98677      2.21281      5.56427        -0.056044      0.174742      0.250788
      4.41477      2.21281      8.15622        -0.056963      0.173860     -0.249483
      2.44121      4.41522      0.99079         0.056929     -0.173985      0.249666
      1.00419      6.60938      3.20382        -0.013427      0.374125     -0.798466
      5.85181      0.01866      5.94318         0.013445     -0.374178      0.798608
      2.42382      0.01860      7.77728         0.013287     -0.370839     -0.791772
      4.43221      6.60940      1.36974        -0.013323      0.370913      0.791827
      5.85183      3.29537      1.36974         0.013114      0.369943      0.789442
      1.00416      3.33266      7.77726        -0.013095     -0.369955     -0.789470
      4.43218      3.33260      5.94315        -0.013487     -0.372291      0.795169
      2.42385      3.29539      3.20387         0.013337      0.372776     -0.795822
      0.99084      0.49271      2.14750        -0.000097     -0.085322      0.255066
      5.86516      6.13533      6.99950         0.000076      0.085397     -0.255259
      2.43716      6.13530      6.72103         0.000321      0.082222      0.248424
      4.41885      0.49272      2.42599        -0.000297     -0.082275     -0.248495
      5.86515      3.80670      2.42595         0.000614     -0.079886     -0.243286
      0.99085      2.82133      6.72105        -0.000619      0.079917      0.243340
      4.41881      2.82132      6.99945         0.000097      0.082468     -0.249557
      2.43718      3.80670      2.14757         0.000128     -0.082654      0.249562
      1.44156      0.67055      0.17059        -0.125231      0.099931      0.259378
      5.41444      5.95747      8.97641         0.125240     -0.099922     -0.259367
      1.98649      5.95746      4.74414         0.124143     -0.098916      0.257670
      4.86951      0.67059      4.40287        -0.124128      0.098898     -0.257706
      5.41448      3.98459      4.40292         0.124739      0.099345     -0.258998
      1.44152      2.64344      4.74408        -0.124715     -0.099359      0.258998
      4.86954      2.64349      8.97641        -0.125418     -0.100083     -0.259687
      1.98646      3.98455      0.17059         0.125476      0.100102      0.259976
      0.31571      1.87181      0.86440         0.192317     -0.237752      0.079186
      6.54029      4.75623      8.28259        -0.192312      0.237739     -0.079184
      3.11224      4.75627      5.43788        -0.190706      0.235914      0.078993
      3.74376      1.87176      3.70911         0.190722     -0.235919     -0.078999
      6.54028      5.18580      3.70912        -0.191700     -0.237155     -0.079437
      0.31571      1.44224      5.43788         0.191700      0.237160      0.079440
      3.74368      1.44220      8.28258         0.192975      0.238513     -0.079256
      3.11232      5.18582      0.86442        -0.193095     -0.238667      0.079416
 -----------------------------------------------------------------------------------
    total drift:                               -0.000008     -0.000008      0.000004


--------------------------------------------------------------------------------------------------------



  FREE ENERGIE OF THE ION-ELECTRON SYSTEM (eV)
  ---------------------------------------------------
  free  energy   TOTEN  =      -292.96400225 eV

  energy  without entropy=     -292.96400225  energy(sigma->0) =     -292.96400225



--------------------------------------------------------------------------------------------------------


    POTLOK:  cpu time      0.4420: real time      0.4425


--------------------------------------------------------------------------------------------------------


 stress matrix after NEB project (eV)
      0.00000      0.00000      0.00000
      0.00000      0.00000      0.00000
      0.00000      0.00000      0.00000
  FORCES: max atom, RMS     0.882023    0.474399
  FORCE total and by dimension    3.000363    0.798608
  Stress total and by dimension    0.000000    0.000000
     LOOP+:  cpu time    130.9762: real time    131.3010
    4ORBIT:  cpu time      0.0000: real time      0.0000

 total amount of memory used by VASP MPI-rank0    69014. kBytes
=======================================================================

   base      :      30000. kBytes
   nonl-proj :       5271. kBytes
   fftplans  :       2245. kBytes
   grid      :       5356. kBytes
   one-center:          6. kBytes
   wavefun   :      26136. kBytes

  
  
 General timing and accounting informations for this job:
 ========================================================
  
                  Total CPU time used (sec):      141.053
                            User time (sec):      139.122
                          System time (sec):        1.931
                         Elapsed time (sec):      144.927
  
                   Maximum memory used (kb):      255048.
                   Average memory used (kb):          N/A
  
                          Minor page faults:        32382
                          Major page faults:          947
                 Voluntary context switches:         3157
