 vasp.6.4.1 05Apr23 (build Jun  6 2023 14:36:51) complex                         
 executed on        HPECrayEX_GCC date 2024.08.20  14:24:56
 running  256 mpi-ranks, with    1 threads/rank, on    2 nodes
 distrk:  each k-point on  256 cores,    1 groups
 distr:  one band on NCORE=  64 cores,    4 groups


--------------------------------------------------------------------------------------------------------


 INCAR:
   ALGO = Conjugate
   NPAR = 4
   ISMEAR = 0
   SIGMA = 0.01
   PREC = Accurate
   EDIFF = 1E-7
   ENCUT = 1000
   ISIF = 0
   GGA = RE
   LWAVE = .FALSE.
   SYMPREC = 1E-7
   LCHARGE = .FALSE.
   LWAVE = .FALSE.
   LCHARGE = .FALSE.

 POTCAR:    PAW_PBE N_h 06Feb2004                 
 POTCAR:    PAW_PBE C_h 06Feb2004                 
 POTCAR:    PAW_PBE H_h 06Feb2004                 
 POTCAR:    PAW_PBE N_h 06Feb2004                 
   VRHFIN =N: s2p3                                                                                  
   LEXCH  = PE                                                                                      
   EATOM  =   264.5486 eV,   19.4438 Ry                                                             
                                                                                                    
   TITEL  = PAW_PBE N_h 06Feb2004                                                                   
   LULTRA =        F    use ultrasoft PP ?                                                          
   IUNSCR =        1    unscreen: 0-lin 1-nonlin 2-no                                               
   RPACOR =    0.800    partial core radius                                                         
   POMASS =   14.001; ZVAL   =    5.000    mass and valenz                                          
   RCORE  =    1.100    outmost cutoff radius                                                       
   RWIGS  =    1.480; RWIGS  =    0.783    wigner-seitz radius (au A)                               
   ENMAX  =  700.000; ENMIN  =  500.000 eV                                                          
   ICORE  =        2    local potential                                                             
   LCOR   =        T    correct aug charges                                                         
   LPAW   =        T    paw PP                                                                      
   EAUG   =  904.640                                                                                
   DEXC   =    0.000                                                                                
   RMAX   =    1.127    core radius for proj-oper                                                   
   RAUG   =    1.300    factor for augmentation sphere                                              
   RDEP   =    1.115    radius for radial grids                                                     
   RDEPT  =    1.106    core radius for aug-charge                                                  
                                                                                                    
   Atomic configuration                                                                             
    4 entries                                                                                       
     n  l   j            E        occ.                                                              
     1  0  0.50      -384.7179   2.0000                                                             
     2  0  0.50       -18.5828   2.0000                                                             
     2  1  0.50        -7.0898   3.0000                                                             
     3  2  1.50        -6.8029   0.0000                                                             
   Description                                                                                      
     l       E           TYP  RCUT    TYP  RCUT                                                     
     0    -18.5828117     23  1.100                                                                 
     0    -15.0750597     23  1.100                                                                 
     1     -7.0897851     23  1.100                                                                 
     1     -1.9663412     23  1.100                                                                 
     2     -6.8029130      7  1.100                                                                 
  local pseudopotential read in
  partial core-charges read in
  partial kinetic energy density read in
  kinetic energy density of atom read in
  atomic valenz-charges read in
  non local Contribution for L=           0  read in
    real space projection operators read in
  non local Contribution for L=           0  read in
    real space projection operators read in
  non local Contribution for L=           1  read in
    real space projection operators read in
  non local Contribution for L=           1  read in
    real space projection operators read in
    PAW grid and wavefunctions read in

   number of l-projection  operators is LMAX  =           4
   number of lm-projection operators is LMMAX =           8

 POTCAR:    PAW_PBE C_h 06Feb2004                 
   VRHFIN =C: s2p2                                                                                  
   LEXCH  = PE                                                                                      
   EATOM  =   147.1560 eV,   10.8157 Ry                                                             
                                                                                                    
   TITEL  = PAW_PBE C_h 06Feb2004                                                                   
   LULTRA =        F    use ultrasoft PP ?                                                          
   IUNSCR =        1    unscreen: 0-lin 1-nonlin 2-no                                               
   RPACOR =    0.800    partial core radius                                                         
   POMASS =   12.011; ZVAL   =    4.000    mass and valenz                                          
   RCORE  =    1.100    outmost cutoff radius                                                       
   RWIGS  =    1.630; RWIGS  =    0.863    wigner-seitz radius (au A)                               
   ENMAX  =  700.000; ENMIN  =  500.000 eV                                                          
   ICORE  =        2    local potential                                                             
   LCOR   =        T    correct aug charges                                                         
   LPAW   =        T    paw PP                                                                      
   EAUG   =  946.768                                                                                
   DEXC   =    0.000                                                                                
   RMAX   =    1.128    core radius for proj-oper                                                   
   RAUG   =    1.300    factor for augmentation sphere                                              
   RDEP   =    1.162    radius for radial grids                                                     
   RDEPT  =    1.088    core radius for aug-charge                                                  
                                                                                                    
   Atomic configuration                                                                             
    4 entries                                                                                       
     n  l   j            E        occ.                                                              
     1  0  0.50      -273.3789   2.0000                                                             
     2  0  0.50       -13.7508   2.0000                                                             
     2  1  0.50        -5.2854   2.0000                                                             
     3  2  1.50        -5.4423   0.0000                                                             
   Description                                                                                      
     l       E           TYP  RCUT    TYP  RCUT                                                     
     0    -13.7508458     23  1.100                                                                 
     0     -8.2022199     23  1.100                                                                 
     1     -5.2854383     23  1.100                                                                 
     1      1.1560700     23  1.100                                                                 
     2     -5.4423304      7  1.100                                                                 
  local pseudopotential read in
  partial core-charges read in
  partial kinetic energy density read in
  atomic valenz-charges read in
  non local Contribution for L=           0  read in
    real space projection operators read in
  non local Contribution for L=           0  read in
    real space projection operators read in
  non local Contribution for L=           1  read in
    real space projection operators read in
  non local Contribution for L=           1  read in
    real space projection operators read in
    PAW grid and wavefunctions read in

   number of l-projection  operators is LMAX  =           4
   number of lm-projection operators is LMMAX =           8

 POTCAR:    PAW_PBE H_h 06Feb2004                 
   VRHFIN =H: ultrasoft test                                                                        
   LEXCH  = PE                                                                                      
   EATOM  =    12.4884 eV,    0.9179 Ry                                                             
                                                                                                    
   TITEL  = PAW_PBE H_h 06Feb2004                                                                   
   LULTRA =        F    use ultrasoft PP ?                                                          
   IUNSCR =        0    unscreen: 0-lin 1-nonlin 2-no                                               
   RPACOR =    0.000    partial core radius                                                         
   POMASS =    1.000; ZVAL   =    1.000    mass and valenz                                          
   RCORE  =    0.800    outmost cutoff radius                                                       
   RWIGS  =    0.700; RWIGS  =    0.370    wigner-seitz radius (au A)                               
   ENMAX  =  700.000; ENMIN  =  350.000 eV                                                          
   RCLOC  =    0.701    cutoff for local pot                                                        
   LCOR   =        T    correct aug charges                                                         
   LPAW   =        T    paw PP                                                                      
   EAUG   = 1000.000                                                                                
   RMAX   =    0.819    core radius for proj-oper                                                   
   RAUG   =    1.000    factor for augmentation sphere                                              
   RDEP   =    0.817    radius for radial grids                                                     
   RDEPT  =    0.817    core radius for aug-charge                                                  
                                                                                                    
   Atomic configuration                                                                             
    2 entries                                                                                       
     n  l   j            E        occ.                                                              
     1  0  0.50        -6.4927   1.0000                                                             
     2  1  0.50        -3.4015   0.0000                                                             
   Description                                                                                      
     l       E           TYP  RCUT    TYP  RCUT                                                     
     0     -6.4927493     23  0.800                                                                 
     0      6.8029130     23  0.800                                                                 
     1     -6.8029130     23  0.800                                                                 
  local pseudopotential read in
  atomic valenz-charges read in
  non local Contribution for L=           0  read in
    real space projection operators read in
  non local Contribution for L=           0  read in
    real space projection operators read in
  non local Contribution for L=           1  read in
    real space projection operators read in
    PAW grid and wavefunctions read in

   number of l-projection  operators is LMAX  =           3
   number of lm-projection operators is LMMAX =           5

 -----------------------------------------------------------------------------
|                                                                             |
|               ----> ADVICE to this user running VASP <----                  |
|                                                                             |
|     You have a (more or less) 'large supercell' and for larger cells it     |
|     might be more efficient to use real-space projection operators.         |
|     Therefore, try LREAL= Auto in the INCAR file.                           |
|     Mind: For very accurate calculation, you might also keep the            |
|     reciprocal projection scheme (i.e. LREAL=.FALSE.).                      |
|                                                                             |
 -----------------------------------------------------------------------------

 -----------------------------------------------------------------------------
|                                                                             |
|               ----> ADVICE to this user running VASP <----                  |
|                                                                             |
|     You enforced a specific xc type in the INCAR file but a different       |
|     type was found in the POTCAR file.                                      |
|     I HOPE YOU KNOW WHAT YOU ARE DOING!                                     |
|                                                                             |
 -----------------------------------------------------------------------------

  PAW_PBE N_h 06Feb2004                 :
 energy of atom  1       EATOM= -264.5486
 kinetic energy error for atom=    0.0081 (will be added to EATOM!!)
  PAW_PBE C_h 06Feb2004                 :
 energy of atom  2       EATOM= -147.1560
 kinetic energy error for atom=    0.0031 (will be added to EATOM!!)
  PAW_PBE H_h 06Feb2004                 :
 energy of atom  3       EATOM=  -12.4884
 kinetic energy error for atom=    0.0006 (will be added to EATOM!!)


 POSCAR:  N  C  H
  positions in cartesian coordinates
  No initial velocities read in
 exchange correlation table for  LEXCH =       40
   RHO(1)=    0.500       N(1)  =     2000
   RHO(2)=  100.500       N(2)  =     4000

 VTST: version 4.1, (05/19/21)

 CHAIN: initializing optimizer
 
 OPT: Using VASP Dynamics algorithm
 CHAIN: Read ICHAIN            0

 POSCAR:  N  C  H
  positions in cartesian coordinates
  No initial velocities read in



--------------------------------------------------------------------------------------------------------


 ion  position               nearest neighbor table
   1  0.144  0.166  0.108-  33 1.03  25 1.03  17 1.31
   2  0.856  0.834  0.892-  34 1.03  26 1.03  18 1.31
   3  0.356  0.834  0.608-  35 1.03  27 1.03  19 1.31
   4  0.644  0.166  0.392-  36 1.03  28 1.03  20 1.31
   5  0.856  0.666  0.392-  37 1.03  29 1.03  21 1.31
   6  0.144  0.334  0.608-  38 1.03  30 1.03  22 1.31
   7  0.644  0.334  0.892-  39 1.03  31 1.03  23 1.31
   8  0.356  0.666  0.108-  40 1.03  32 1.03  24 1.31
   9  0.146  0.997  0.350-  17 1.17
  10  0.854  0.003  0.650-  18 1.17
  11  0.354  0.003  0.850-  19 1.17
  12  0.646  0.997  0.150-  20 1.17
  13  0.854  0.497  0.150-  21 1.17
  14  0.146  0.503  0.850-  22 1.17
  15  0.646  0.503  0.650-  23 1.17
  16  0.354  0.497  0.350-  24 1.17
  17  0.145  0.074  0.235-   9 1.17   1 1.31
  18  0.855  0.926  0.765-  10 1.17   2 1.31
  19  0.355  0.926  0.735-  11 1.17   3 1.31
  20  0.645  0.074  0.265-  12 1.17   4 1.31
  21  0.855  0.574  0.265-  13 1.17   5 1.31
  22  0.145  0.426  0.735-  14 1.17   6 1.31
  23  0.645  0.426  0.765-  15 1.17   7 1.31
  24  0.355  0.574  0.235-  16 1.17   8 1.31
  25  0.210  0.101  0.019-   1 1.03
  26  0.790  0.899  0.981-   2 1.03
  27  0.290  0.899  0.519-   3 1.03
  28  0.710  0.101  0.481-   4 1.03
  29  0.790  0.601  0.481-   5 1.03
  30  0.210  0.399  0.519-   6 1.03
  31  0.710  0.399  0.981-   7 1.03
  32  0.290  0.601  0.019-   8 1.03
  33  0.046  0.282  0.095-   1 1.03
  34  0.954  0.718  0.905-   2 1.03
  35  0.454  0.718  0.594-   3 1.03
  36  0.546  0.282  0.405-   4 1.03
  37  0.954  0.782  0.406-   5 1.03
  38  0.046  0.218  0.594-   6 1.03
  39  0.546  0.218  0.905-   7 1.03
  40  0.454  0.782  0.095-   8 1.03

  LATTYP: Found a simple orthorhombic cell.
 ALAT       =     6.6280000000
 B/A-ratio  =     1.0343995172
 C/A-ratio  =     1.3800543150
  
  Lattice vectors:
  
 A1 = (   0.0000000000,  -6.6280000000,   0.0000000000)
 A2 = (   6.8560000000,   0.0000000000,   0.0000000000)
 A3 = (   0.0000000000,   0.0000000000,   9.1470000000)


Analysis of symmetry for initial positions (statically):
=====================================================================
 Subroutine PRICEL returns:
 Original cell was already a primitive cell.
 

 Routine SETGRP: Setting up the symmetry group for a 
 simple orthorhombic supercell.


 Subroutine GETGRP returns: Found  1 space group operations
 (whereof  1 operations were pure point group operations)
 out of a pool of  8 trial point group operations.


The static configuration has the point symmetry C_1 .


Analysis of symmetry for dynamics (positions and initial velocities):
=====================================================================
 Subroutine PRICEL returns:
 Original cell was already a primitive cell.
 

 Routine SETGRP: Setting up the symmetry group for a 
 simple orthorhombic supercell.


 Subroutine GETGRP returns: Found  1 space group operations
 (whereof  1 operations were pure point group operations)
 out of a pool of  8 trial point group operations.


The dynamic configuration has the point symmetry C_1 .


 Subroutine INISYM returns: Found  1 space group operations
 (whereof  1 operations are pure point group operations),
 and found     1 'primitive' translations


----------------------------------------------------------------------------------------

                                     Primitive cell                                     

  volume of cell :     415.6540

  direct lattice vectors                    reciprocal lattice vectors
     6.856000000  0.000000000  0.000000000     0.145857643  0.000000000  0.000000000
     0.000000000  6.628000000  0.000000000     0.000000000  0.150875075  0.000000000
     0.000000000  0.000000000  9.147000000     0.000000000  0.000000000  0.109325462

  length of vectors
     6.856000000  6.628000000  9.147000000     0.145857643  0.150875075  0.109325462

  position of ions in fractional coordinates (direct lattice)
     0.143930733  0.166145508  0.108317168
     0.856069582  0.833859835  0.891682563
     0.356072303  0.833861260  0.608317245
     0.643928580  0.166144304  0.391683022
     0.856072073  0.666146724  0.391683865
     0.143928031  0.333857930  0.608316301
     0.643928632  0.333857963  0.891682734
     0.356069295  0.666146835  0.108318911
     0.146468505  0.997190838  0.350258895
     0.853531025  0.002814810  0.649740955
     0.353532148  0.002805528  0.850254528
     0.646471688  0.997194472  0.149747710
     0.853534634  0.497189310  0.149747627
     0.146464762  0.502815926  0.850252307
     0.646467064  0.502805666  0.649737442
     0.353536455  0.497192848  0.350264085
     0.144521698  0.074337867  0.234776897
     0.855478271  0.925667762  0.765223147
     0.355478444  0.925664261  0.734779199
     0.644523667  0.074338457  0.265222176
     0.855477358  0.574336336  0.265217807
     0.144522328  0.425668646  0.734782160
     0.644517261  0.425667228  0.765217701
     0.355481008  0.574336118  0.234784595
     0.210262133  0.101169491  0.018649582
     0.789737434  0.898834450  0.981350445
     0.289744085  0.898832635  0.518655410
     0.710255280  0.101174648  0.481346209
     0.789743234  0.601175397  0.481350742
     0.210256233  0.398829556  0.518649257
     0.710259024  0.398836817  0.981350549
     0.289739792  0.601168672  0.018649451
     0.046049261  0.282408777  0.094501239
     0.953950919  0.717596302  0.905498169
     0.453943273  0.717602929  0.594498936
     0.546055938  0.282401728  0.405499684
     0.953950324  0.782407493  0.405501363
     0.046049081  0.217597828  0.594498680
     0.546043803  0.217592277  0.905497175
     0.453956166  0.782411587  0.094503019

  ion indices of the primitive-cell ions
   primitive index   ion index
                 1           1
                 2           2
                 3           3
                 4           4
                 5           5
                 6           6
                 7           7
                 8           8
                 9           9
                10          10
                11          11
                12          12
                13          13
                14          14
                15          15
                16          16
                17          17
                18          18
                19          19
                20          20
                21          21
                22          22
                23          23
                24          24
                25          25
                26          26
                27          27
                28          28
                29          29
                30          30
                31          31
                32          32
                33          33
                34          34
                35          35
                36          36
                37          37
                38          38
                39          39
                40          40

----------------------------------------------------------------------------------------



 KPOINTS: auto                                    

Automatic generation of k-mesh.
 Grid dimensions read from file:
 generate k-points for:    4    4    3

 Generating k-lattice:

  Cartesian coordinates                     Fractional coordinates (reciprocal lattice)
     0.036464411  0.000000000  0.000000000     0.250000000  0.000000000  0.000000000
     0.000000000  0.037718769  0.000000000     0.000000000  0.250000000  0.000000000
     0.000000000  0.000000000  0.036441821     0.000000000  0.000000000  0.333333333

  Length of vectors
     0.036464411  0.037718769  0.036441821

  Shift w.r.t. Gamma in fractional coordinates (k-lattice)
     0.000000000  0.000000000  0.000000000

 
 Subroutine IBZKPT returns following result:
 ===========================================
 
 Found     26 irreducible k-points:
 
 Following reciprocal coordinates:
            Coordinates               Weight
  0.000000  0.000000  0.000000      1.000000
  0.250000  0.000000  0.000000      2.000000
  0.500000  0.000000  0.000000      1.000000
  0.000000  0.250000  0.000000      2.000000
  0.250000  0.250000  0.000000      2.000000
 -0.250000  0.250000  0.000000      2.000000
  0.500000  0.250000  0.000000      2.000000
  0.000000  0.500000  0.000000      1.000000
  0.250000  0.500000  0.000000      2.000000
  0.500000  0.500000  0.000000      1.000000
  0.000000  0.000000  0.333333      2.000000
  0.250000  0.000000  0.333333      2.000000
  0.250000  0.000000 -0.333333      2.000000
  0.500000  0.000000  0.333333      2.000000
  0.000000  0.250000  0.333333      2.000000
  0.000000  0.250000 -0.333333      2.000000
  0.250000  0.250000  0.333333      2.000000
 -0.250000  0.250000 -0.333333      2.000000
  0.250000 -0.250000 -0.333333      2.000000
 -0.250000 -0.250000  0.333333      2.000000
  0.500000  0.250000  0.333333      2.000000
  0.500000  0.250000 -0.333333      2.000000
  0.000000  0.500000  0.333333      2.000000
  0.250000  0.500000  0.333333      2.000000
  0.250000  0.500000 -0.333333      2.000000
  0.500000  0.500000  0.333333      2.000000
 
 Following cartesian coordinates:
            Coordinates               Weight
  0.000000  0.000000  0.000000      1.000000
  0.036464  0.000000  0.000000      2.000000
  0.072929  0.000000  0.000000      1.000000
  0.000000  0.037719  0.000000      2.000000
  0.036464  0.037719  0.000000      2.000000
 -0.036464  0.037719  0.000000      2.000000
  0.072929  0.037719  0.000000      2.000000
  0.000000  0.075438  0.000000      1.000000
  0.036464  0.075438  0.000000      2.000000
  0.072929  0.075438  0.000000      1.000000
  0.000000  0.000000  0.036442      2.000000
  0.036464  0.000000  0.036442      2.000000
  0.036464  0.000000 -0.036442      2.000000
  0.072929  0.000000  0.036442      2.000000
  0.000000  0.037719  0.036442      2.000000
  0.000000  0.037719 -0.036442      2.000000
  0.036464  0.037719  0.036442      2.000000
 -0.036464  0.037719 -0.036442      2.000000
  0.036464 -0.037719 -0.036442      2.000000
 -0.036464 -0.037719  0.036442      2.000000
  0.072929  0.037719  0.036442      2.000000
  0.072929  0.037719 -0.036442      2.000000
  0.000000  0.075438  0.036442      2.000000
  0.036464  0.075438  0.036442      2.000000
  0.036464  0.075438 -0.036442      2.000000
  0.072929  0.075438  0.036442      2.000000
 


--------------------------------------------------------------------------------------------------------




 Dimension of arrays:
   k-points           NKPTS =     26   k-points in BZ     NKDIM =     26   number of bands    NBANDS=     88
   number of dos      NEDOS =    301   number of ions     NIONS =     40
   non local maximal  LDIM  =      4   non local SUM 2l+1 LMDIM =      8
   total plane-waves  NPLWV = 483840
   max r-space proj   IRMAX =      1   max aug-charges    IRDMAX=   8466
   dimension x,y,z NGX =    72 NGY =   70 NGZ =   96
   dimension x,y,z NGXF=   144 NGYF=  140 NGZF=  192
   support grid    NGXF=   144 NGYF=  140 NGZF=  192
   ions per type =              16   8  16
   NGX,Y,Z   is equivalent  to a cutoff of  17.46, 17.56, 17.45 a.u.
   NGXF,Y,Z  is equivalent  to a cutoff of  34.92, 35.12, 34.90 a.u.

 SYSTEM =  unknown system                          
 POSCAR =   N  C  H                                

 Startparameter for this run:
   NWRITE =      2    write-flag & timer
   PREC   = accura    normal or accurate (medium, high low for compatibility)
   ISTART =      0    job   : 0-new  1-cont  2-samecut
   ICHARG =      2    charge: 1-file 2-atom 10-const
   ISPIN  =      1    spin polarized calculation?
   LNONCOLLINEAR =      F non collinear calculations
   LSORBIT =      F    spin-orbit coupling
   INIWAV =      1    electr: 0-lowe 1-rand  2-diag
   LASPH  =      F    aspherical Exc in radial PAW
 Electronic Relaxation 1
   ENCUT  = 1000.0 eV  73.50 Ry    8.57 a.u.  17.68 17.09 23.58*2*pi/ulx,y,z
   ENINI  = 1000.0     initial cutoff
   ENAUG  = 1000.0 eV  augmentation charge cutoff
   NELM   =     60;   NELMIN=  2; NELMDL= -5     # of ELM steps 
   EDIFF  = 0.1E-06   stopping-criterion for ELM
   LREAL  =      F    real-space projection
   NLSPLINE    = F    spline interpolate recip. space projectors
   LCOMPAT=      F    compatible to vasp.4.4
   GGA_COMPAT  = T    GGA compatible to vasp.4.4-vasp.4.6
   LMAXPAW     = -100 max onsite density
   LMAXMIX     =    2 max onsite mixed and CHGCAR
   VOSKOWN=      0    Vosko Wilk Nusair interpolation
   ROPT   =    0.00000   0.00000   0.00000
 Ionic relaxation
   EDIFFG = 0.1E-05   stopping-criterion for IOM
   NSW    =      0    number of steps for IOM
   NBLOCK =      1;   KBLOCK =      1    inner block; outer block 
   IBRION =     -1    ionic relax: 0-MD 1-quasi-New 2-CG
   NFREE  =      0    steps in history (QN), initial steepest desc. (CG)
   ISIF   =      0    stress and relaxation
   IWAVPR =     10    prediction:  0-non 1-charg 2-wave 3-comb
   ISYM   =      2    0-nonsym 1-usesym 2-fastsym
   LCORR  =      T    Harris-Foulkes like correction to forces

   POTIM  = 0.5000    time-step for ionic-motion
   TEIN   =    0.0    initial temperature
   TEBEG  =    0.0;   TEEND  =   0.0 temperature during run
   SMASS  =  -3.00    Nose mass-parameter (am)
   estimated Nose-frequenzy (Omega)   =  0.10E-29 period in steps = 0.13E+47 mass=  -0.107E-26a.u.
   SCALEE = 1.0000    scale energy and forces
   NPACO  =    256;   APACO  = 10.0  distance and # of slots for P.C.
   PSTRESS=    0.0 pullay stress

  Mass of Ions in am
   POMASS =  14.00 12.01  1.00
  Ionic Valenz
   ZVAL   =   5.00  4.00  1.00
  Atomic Wigner-Seitz radii
   RWIGS  =  -1.00 -1.00 -1.00
  virtual crystal weights 
   VCA    =   1.00  1.00  1.00
   NELECT =     128.0000    total number of electrons
   NUPDOWN=      -1.0000    fix difference up-down

 DOS related values:
   EMIN   =  10.00;   EMAX   =-10.00  energy-range for DOS
   EFERMI =   0.00;   METHOD = LEGACY      
   ISMEAR =     0;   SIGMA  =   0.01  broadening in eV -4-tet -1-fermi 0-gaus

 Electronic relaxation 2 (details)
   IALGO  =     58    algorithm
   LDIAG  =      T    sub-space diagonalisation (order eigenvalues)
   LSUBROT=      F    optimize rotation matrix (better conditioning)
   TURBO    =      0    0=normal 1=particle mesh
   IRESTART =      0    0=no restart 2=restart with 2 vectors
   NREBOOT  =      0    no. of reboots
   NMIN     =      0    reboot dimension
   EREF     =   0.00    reference energy to select bands
   IMIX   =      4    mixing-type and parameters
     AMIX     =   0.40;   BMIX     =  1.00
     AMIX_MAG =   1.60;   BMIX_MAG =  1.00
     AMIN     =   0.10
     WC   =   100.;   INIMIX=   1;  MIXPRE=   1;  MAXMIX= -45

 Intra band minimization:
   WEIMIN = 0.0000     energy-eigenvalue tresh-hold
   EBREAK =  0.28E-09  absolut break condition
   DEPER  =   0.30     relativ break condition  

   TIME   =   0.40     timestep for ELM

  volume/ion in A,a.u.               =      10.39        70.12
  Fermi-wavevector in a.u.,A,eV,Ry     =   1.105522  2.089134 16.628761  1.222179
  Thomas-Fermi vector in A             =   2.242010

 Write flags
   LWAVE        =      F    write WAVECAR
   LDOWNSAMPLE  =      F    k-point downsampling of WAVECAR
   LCHARG       =      T    write CHGCAR
   LVTOT        =      F    write LOCPOT, total local potential
   LVHAR        =      F    write LOCPOT, Hartree potential only
   LELF         =      F    write electronic localiz. function (ELF)
   LORBIT       =      0    0 simple, 1 ext, 2 COOP (PROOUT), +10 PAW based schemes


 Dipole corrections
   LMONO  =      F    monopole corrections only (constant potential shift)
   LDIPOL =      F    correct potential (dipole corrections)
   IDIPOL =      0    1-x, 2-y, 3-z, 4-all directions 
   EPSILON=  1.0000000 bulk dielectric constant

 Exchange correlation treatment:
   GGA     =    RE    GGA type
   LEXCH   =    40    internal setting for exchange type
   LIBXC   =     F    Libxc                    
   VOSKOWN =     0    Vosko Wilk Nusair interpolation
   LHFCALC =     F    Hartree Fock is set to
   LHFONE  =     F    Hartree Fock one center treatment
   AEXX    =    0.0000 exact exchange contribution

 Linear response parameters
   LEPSILON=     F    determine dielectric tensor
   LRPA    =     F    only Hartree local field effects (RPA)
   LNABLA  =     F    use nabla operator in PAW spheres
   LVEL    =     F    velocity operator in full k-point grid
   CSHIFT  =0.1000    complex shift for real part using Kramers Kronig
   OMEGAMAX=  -1.0    maximum frequency
   DEG_THRESHOLD= 0.2000000E-02 threshold for treating states as degnerate
   RTIME   =   -0.100 relaxation time in fs
  (WPLASMAI=    0.000 imaginary part of plasma frequency in eV, 0.658/RTIME)
   DFIELD  = 0.0000000 0.0000000 0.0000000 field for delta impulse in time

  Optional k-point grid parameters
   LKPOINTS_OPT  =     F    use optional k-point grid
   KPOINTS_OPT_MODE=     1    mode for optional k-point grid

 Orbital magnetization related:
   ORBITALMAG=     F  switch on orbital magnetization
   LCHIMAG   =     F  perturbation theory with respect to B field
   DQ        =  0.001000  dq finite difference perturbation B field
   LLRAUG    =     F  two centre corrections for induced B field
   LBONE     =     F  B-component reconstruction in AE one-centre
   LVGVCALC  =     T  calculate vGv susceptibility
   LVGVAPPL  =     F  apply vGv susceptibility instead of pGv for G=0

 Random number generation:
   RANDOM_GENERATOR = DEFAULT
   PCG_SEED         = not used


--------------------------------------------------------------------------------------------------------


 Static calculation
 charge density and potential will be updated during run
 non-spin polarized calculation
 Conjugate gradient for all bands (Freysoldt, et al. PRB 79, 241103 (2009))
 preconditioned conjugated gradient                                        
 perform sub-space diagonalisation
    before iterative eigenvector-optimisation
 modified Broyden-mixing scheme, WC =      100.0
 initial mixing is a Kerker type mixing with AMIX =  0.4000 and BMIX =      1.0000
 Hartree-type preconditioning will be used
 using additional bands           24
 reciprocal scheme for non local part
 use partial core corrections
 no Harris-corrections to forces 
 use gradient corrections 
 use of overlap-Matrix (Vanderbilt PP)
 Gauss-broadening in eV      SIGMA  =   0.01


--------------------------------------------------------------------------------------------------------


  energy-cutoff  :     1000.00
  volume of cell :      415.65
      direct lattice vectors                 reciprocal lattice vectors
     6.856000000  0.000000000  0.000000000     0.145857643  0.000000000  0.000000000
     0.000000000  6.628000000  0.000000000     0.000000000  0.150875075  0.000000000
     0.000000000  0.000000000  9.147000000     0.000000000  0.000000000  0.109325462

  length of vectors
     6.856000000  6.628000000  9.147000000     0.145857643  0.150875075  0.109325462



 k-points in units of 2pi/SCALE and weight: auto                                    
   0.00000000  0.00000000  0.00000000       0.021
   0.03646441  0.00000000  0.00000000       0.042
   0.07292882  0.00000000  0.00000000       0.021
   0.00000000  0.03771877  0.00000000       0.042
   0.03646441  0.03771877  0.00000000       0.042
  -0.03646441  0.03771877  0.00000000       0.042
   0.07292882  0.03771877  0.00000000       0.042
   0.00000000  0.07543754  0.00000000       0.021
   0.03646441  0.07543754  0.00000000       0.042
   0.07292882  0.07543754  0.00000000       0.021
   0.00000000  0.00000000  0.03644182       0.042
   0.03646441  0.00000000  0.03644182       0.042
   0.03646441  0.00000000 -0.03644182       0.042
   0.07292882  0.00000000  0.03644182       0.042
   0.00000000  0.03771877  0.03644182       0.042
   0.00000000  0.03771877 -0.03644182       0.042
   0.03646441  0.03771877  0.03644182       0.042
  -0.03646441  0.03771877 -0.03644182       0.042
   0.03646441 -0.03771877 -0.03644182       0.042
  -0.03646441 -0.03771877  0.03644182       0.042
   0.07292882  0.03771877  0.03644182       0.042
   0.07292882  0.03771877 -0.03644182       0.042
   0.00000000  0.07543754  0.03644182       0.042
   0.03646441  0.07543754  0.03644182       0.042
   0.03646441  0.07543754 -0.03644182       0.042
   0.07292882  0.07543754  0.03644182       0.042

 k-points in reciprocal lattice and weights: auto                                    
   0.00000000  0.00000000  0.00000000       0.021
   0.25000000  0.00000000  0.00000000       0.042
   0.50000000  0.00000000  0.00000000       0.021
   0.00000000  0.25000000  0.00000000       0.042
   0.25000000  0.25000000  0.00000000       0.042
  -0.25000000  0.25000000  0.00000000       0.042
   0.50000000  0.25000000  0.00000000       0.042
   0.00000000  0.50000000  0.00000000       0.021
   0.25000000  0.50000000  0.00000000       0.042
   0.50000000  0.50000000  0.00000000       0.021
   0.00000000  0.00000000  0.33333333       0.042
   0.25000000  0.00000000  0.33333333       0.042
   0.25000000  0.00000000 -0.33333333       0.042
   0.50000000  0.00000000  0.33333333       0.042
   0.00000000  0.25000000  0.33333333       0.042
   0.00000000  0.25000000 -0.33333333       0.042
   0.25000000  0.25000000  0.33333333       0.042
  -0.25000000  0.25000000 -0.33333333       0.042
   0.25000000 -0.25000000 -0.33333333       0.042
  -0.25000000 -0.25000000  0.33333333       0.042
   0.50000000  0.25000000  0.33333333       0.042
   0.50000000  0.25000000 -0.33333333       0.042
   0.00000000  0.50000000  0.33333333       0.042
   0.25000000  0.50000000  0.33333333       0.042
   0.25000000  0.50000000 -0.33333333       0.042
   0.50000000  0.50000000  0.33333333       0.042

 position of ions in fractional coordinates (direct lattice) 
   0.14393073  0.16614551  0.10831717
   0.85606958  0.83385984  0.89168256
   0.35607230  0.83386126  0.60831724
   0.64392858  0.16614430  0.39168302
   0.85607207  0.66614672  0.39168387
   0.14392803  0.33385793  0.60831630
   0.64392863  0.33385796  0.89168273
   0.35606930  0.66614684  0.10831891
   0.14646851  0.99719084  0.35025889
   0.85353103  0.00281481  0.64974096
   0.35353215  0.00280553  0.85025453
   0.64647169  0.99719447  0.14974771
   0.85353463  0.49718931  0.14974763
   0.14646476  0.50281593  0.85025231
   0.64646706  0.50280567  0.64973744
   0.35353645  0.49719285  0.35026408
   0.14452170  0.07433787  0.23477690
   0.85547827  0.92566776  0.76522315
   0.35547844  0.92566426  0.73477920
   0.64452367  0.07433846  0.26522218
   0.85547736  0.57433634  0.26521781
   0.14452233  0.42566865  0.73478216
   0.64451726  0.42566723  0.76521770
   0.35548101  0.57433612  0.23478460
   0.21026213  0.10116949  0.01864958
   0.78973743  0.89883445  0.98135044
   0.28974409  0.89883264  0.51865541
   0.71025528  0.10117465  0.48134621
   0.78974323  0.60117540  0.48135074
   0.21025623  0.39882956  0.51864926
   0.71025902  0.39883682  0.98135055
   0.28973979  0.60116867  0.01864945
   0.04604926  0.28240878  0.09450124
   0.95395092  0.71759630  0.90549817
   0.45394327  0.71760293  0.59449894
   0.54605594  0.28240173  0.40549968
   0.95395032  0.78240749  0.40550136
   0.04604908  0.21759783  0.59449868
   0.54604380  0.21759228  0.90549718
   0.45395617  0.78241159  0.09450302

 position of ions in cartesian coordinates  (Angst):
   0.98678911  1.10121243  0.99077714
   5.86921305  5.52682299  8.15622040
   2.44123171  5.52683243  5.56427784
   4.41477435  1.10120445  3.58272460
   5.86923013  4.41522049  3.58273232
   0.98677058  2.21281036  5.56426921
   4.41477470  2.21281058  8.15622196
   2.44121109  4.41522122  0.99079308
   1.00418807  6.60938087  3.20381811
   5.85180871  0.01865656  5.94318052
   2.42381641  0.01859504  7.77727817
   4.43220989  6.60940496  1.36974230
   5.85183345  3.29537075  1.36974155
   1.00416241  3.33266396  7.77725785
   4.43217819  3.33259595  5.94314838
   2.42384593  3.29539420  3.20386558
   0.99084076  0.49271138  2.14750428
   5.86515902  6.13532592  6.99949613
   2.43716021  6.13530272  6.72102533
   4.41885426  0.49271529  2.42598724
   5.86515277  3.80670123  2.42594728
   0.99084508  2.82133178  6.72105241
   4.41881034  2.82132239  6.99944631
   2.43717779  3.80669979  2.14757469
   1.44155719  0.67055139  0.17058773
   5.41443985  5.95747474  8.97641252
   1.98648545  5.95746271  4.74414103
   4.86951020  0.67058557  4.40287378
   5.41447961  3.98459053  4.40291523
   1.44151673  2.64344230  4.74408475
   4.86953587  2.64349042  8.97641347
   1.98645601  3.98454595  0.17058653
   0.31571373  1.87180537  0.86440283
   6.54028750  4.75622829  8.28259175
   3.11223508  4.75627221  5.43788177
   3.74375951  1.87175865  3.70910561
   6.54028342  5.18579686  3.70912097
   0.31571250  1.44223840  5.43787943
   3.74367631  1.44220161  8.28258266
   3.11232348  5.18582400  0.86441911



--------------------------------------------------------------------------------------------------------


 k-point   1 :   0.0000 0.0000 0.0000  plane waves:   29863
 k-point   2 :   0.2500 0.0000 0.0000  plane waves:   29873
 k-point   3 :   0.5000 0.0000 0.0000  plane waves:   29848
 k-point   4 :   0.0000 0.2500 0.0000  plane waves:   29860
 k-point   5 :   0.2500 0.2500 0.0000  plane waves:   29833
 k-point   6 :  -0.2500 0.2500 0.0000  plane waves:   29833
 k-point   7 :   0.5000 0.2500 0.0000  plane waves:   29838
 k-point   8 :   0.0000 0.5000 0.0000  plane waves:   29882
 k-point   9 :   0.2500 0.5000 0.0000  plane waves:   29838
 k-point  10 :   0.5000 0.5000 0.0000  plane waves:   29820
 k-point  11 :   0.0000 0.0000 0.3333  plane waves:   29861
 k-point  12 :   0.2500 0.0000 0.3333  plane waves:   29838
 k-point  13 :   0.2500 0.0000-0.3333  plane waves:   29838
 k-point  14 :   0.5000 0.0000 0.3333  plane waves:   29810
 k-point  15 :   0.0000 0.2500 0.3333  plane waves:   29825
 k-point  16 :   0.0000 0.2500-0.3333  plane waves:   29825
 k-point  17 :   0.2500 0.2500 0.3333  plane waves:   29837
 k-point  18 :  -0.2500 0.2500-0.3333  plane waves:   29837
 k-point  19 :   0.2500-0.2500-0.3333  plane waves:   29837
 k-point  20 :  -0.2500-0.2500 0.3333  plane waves:   29837
 k-point  21 :   0.5000 0.2500 0.3333  plane waves:   29848
 k-point  22 :   0.5000 0.2500-0.3333  plane waves:   29848
 k-point  23 :   0.0000 0.5000 0.3333  plane waves:   29840
 k-point  24 :   0.2500 0.5000 0.3333  plane waves:   29846
 k-point  25 :   0.2500 0.5000-0.3333  plane waves:   29846
 k-point  26 :   0.5000 0.5000 0.3333  plane waves:   29832

 maximum and minimum number of plane-waves per node :       495      444

 maximum number of plane-waves:     29882
 maximum index in each direction: 
   IXMAX=   17   IYMAX=   17   IZMAX=   23
   IXMIN=  -18   IYMIN=  -17   IZMIN=  -23


 parallel 3D FFT for wavefunctions:
    minimum data exchange during FFTs selected (reduces bandwidth)
 parallel 3D FFT for charge:
    minimum data exchange during FFTs selected (reduces bandwidth)


 total amount of memory used by VASP MPI-rank0    49410. kBytes
=======================================================================

   base      :      30000. kBytes
   nonl-proj :       2658. kBytes
   fftplans  :       1300. kBytes
   grid      :       2273. kBytes
   one-center:          3. kBytes
   wavefun   :      13176. kBytes

     INWAV:  cpu time      0.0002: real time      0.0003
 Broyden mixing: mesh for mixing (old mesh)
   NGX = 35   NGY = 35   NGZ = 47
  (NGX  =144   NGY  =140   NGZ  =192)
  gives a total of  57575 points

 initial charge density was supplied:
 charge density of overlapping atoms calculated
 number of electron     128.0000000 magnetization 
 keeping initial charge density in first step


--------------------------------------------------------------------------------------------------------


 Maximum index for augmentation-charges          123 (set IRDMAX)


--------------------------------------------------------------------------------------------------------


 First call to EWALD:  gamma=   0.238
 Maximum number of real-space cells 3x 3x 2
 Maximum number of reciprocal cells 3x 2x 3

    FEWALD:  cpu time      0.0026: real time      0.0027


--------------------------------------- Ionic step        1  -------------------------------------------




--------------------------------------- Iteration      1(   1)  ---------------------------------------


    POTLOK:  cpu time      0.0707: real time      0.0721
    SETDIJ:  cpu time      0.0070: real time      0.0073
    TRIAL :  cpu time      2.8268: real time      2.8295
    CORREC:  cpu time      0.0035: real time      0.0035
    --------------------------------------------
      LOOP:  cpu time      2.9187: real time      2.9232

 eigenvalue-minimisations  :  4576
 total energy-change (2. order) : 0.1127080E+04  (-0.9472219E+04)
 number of electron     128.0000000 magnetization 
 augmentation part      128.0000000 magnetization 

 Free energy of the ion-electron system (eV)
  ---------------------------------------------------
  alpha Z        PSCENC =       118.91601032
  Ewald energy   TEWEN  =     -3118.12717471
  -Hartree energ DENC   =     -1912.96877498
  -exchange      EXHF   =         0.00000000
  -V(xc)+E(xc)   XCENC  =       354.32336881
  PAW double counting   =      4251.32551022    -4180.53172398
  entropy T*S    EENTRO =        -0.00090419
  eigenvalues    EBANDS =         7.85643542
  atomic energy  EATOM  =      5606.28738325
  ---------------------------------------------------
  free energy    TOTEN  =      1127.08013015 eV

  energy without entropy =     1127.08103435  energy(sigma->0) =     1127.08058225


--------------------------------------------------------------------------------------------------------




--------------------------------------- Iteration      1(   2)  ---------------------------------------


    TRIAL :  cpu time      3.3741: real time      3.3752
    CORREC:  cpu time      0.0004: real time      0.0004
    --------------------------------------------
      LOOP:  cpu time      3.3882: real time      3.4077

 eigenvalue-minimisations  :  6016
 total energy-change (2. order) :-0.1210924E+04  (-0.1156821E+04)
 number of electron     128.0000000 magnetization 
 augmentation part      128.0000000 magnetization 

 Free energy of the ion-electron system (eV)
  ---------------------------------------------------
  alpha Z        PSCENC =       118.91601032
  Ewald energy   TEWEN  =     -3118.12717471
  -Hartree energ DENC   =     -1912.96877498
  -exchange      EXHF   =         0.00000000
  -V(xc)+E(xc)   XCENC  =       354.32336881
  PAW double counting   =      4251.32551022    -4180.53172398
  entropy T*S    EENTRO =        -0.00000000
  eigenvalues    EBANDS =     -1203.06801992
  atomic energy  EATOM  =      5606.28738325
  ---------------------------------------------------
  free energy    TOTEN  =       -83.84342100 eV

  energy without entropy =      -83.84342100  energy(sigma->0) =      -83.84342100


--------------------------------------------------------------------------------------------------------




--------------------------------------- Iteration      1(   3)  ---------------------------------------


    TRIAL :  cpu time      3.1772: real time      3.1784
    CORREC:  cpu time      0.0004: real time      0.0004
    --------------------------------------------
      LOOP:  cpu time      3.2081: real time      3.2098

 eigenvalue-minimisations  :  5568
 total energy-change (2. order) :-0.1866851E+03  (-0.1845615E+03)
 number of electron     128.0000000 magnetization 
 augmentation part      128.0000000 magnetization 

 Free energy of the ion-electron system (eV)
  ---------------------------------------------------
  alpha Z        PSCENC =       118.91601032
  Ewald energy   TEWEN  =     -3118.12717471
  -Hartree energ DENC   =     -1912.96877498
  -exchange      EXHF   =         0.00000000
  -V(xc)+E(xc)   XCENC  =       354.32336881
  PAW double counting   =      4251.32551022    -4180.53172398
  entropy T*S    EENTRO =        -0.00000000
  eigenvalues    EBANDS =     -1389.75314578
  atomic energy  EATOM  =      5606.28738325
  ---------------------------------------------------
  free energy    TOTEN  =      -270.52854685 eV

  energy without entropy =     -270.52854685  energy(sigma->0) =     -270.52854685


--------------------------------------------------------------------------------------------------------




--------------------------------------- Iteration      1(   4)  ---------------------------------------


    TRIAL :  cpu time      3.1869: real time      3.1886
    CORREC:  cpu time      0.0006: real time      0.0006
    --------------------------------------------
      LOOP:  cpu time      3.2164: real time      3.2184

 eigenvalue-minimisations  :  5616
 total energy-change (2. order) :-0.7589488E+01  (-0.7514803E+01)
 number of electron     128.0000000 magnetization 
 augmentation part      128.0000000 magnetization 

 Free energy of the ion-electron system (eV)
  ---------------------------------------------------
  alpha Z        PSCENC =       118.91601032
  Ewald energy   TEWEN  =     -3118.12717471
  -Hartree energ DENC   =     -1912.96877498
  -exchange      EXHF   =         0.00000000
  -V(xc)+E(xc)   XCENC  =       354.32336881
  PAW double counting   =      4251.32551022    -4180.53172398
  entropy T*S    EENTRO =        -0.00000000
  eigenvalues    EBANDS =     -1397.34263388
  atomic energy  EATOM  =      5606.28738325
  ---------------------------------------------------
  free energy    TOTEN  =      -278.11803495 eV

  energy without entropy =     -278.11803495  energy(sigma->0) =     -278.11803495


--------------------------------------------------------------------------------------------------------




--------------------------------------- Iteration      1(   5)  ---------------------------------------


    TRIAL :  cpu time      3.2695: real time      3.2708
    CORREC:  cpu time      0.0005: real time      0.0005
    CHARGE:  cpu time      0.1267: real time      0.1278
    --------------------------------------------
      LOOP:  cpu time      3.4106: real time      3.4311

 eigenvalue-minimisations  :  5768
 total energy-change (2. order) :-0.3078591E+00  (-0.3073565E+00)
 number of electron     128.0000000 magnetization 
 augmentation part       -0.2952513 magnetization 

 Free energy of the ion-electron system (eV)
  ---------------------------------------------------
  alpha Z        PSCENC =       118.91601032
  Ewald energy   TEWEN  =     -3118.12717471
  -Hartree energ DENC   =     -1912.96877498
  -exchange      EXHF   =         0.00000000
  -V(xc)+E(xc)   XCENC  =       354.32336881
  PAW double counting   =      4251.32551022    -4180.53172398
  entropy T*S    EENTRO =        -0.00000000
  eigenvalues    EBANDS =     -1397.65049296
  atomic energy  EATOM  =      5606.28738325
  ---------------------------------------------------
  free energy    TOTEN  =      -278.42589403 eV

  energy without entropy =     -278.42589403  energy(sigma->0) =     -278.42589403


--------------------------------------------------------------------------------------------------------




--------------------------------------- Iteration      1(   6)  ---------------------------------------


    POTLOK:  cpu time      0.0225: real time      0.0225
    SETDIJ:  cpu time      0.0021: real time      0.0021
    TRIAL :  cpu time      1.6650: real time      1.6673
    CORREC:  cpu time      0.8663: real time      0.8669
    CHARGE:  cpu time      0.1050: real time      0.1050
    --------------------------------------------
      LOOP:  cpu time      2.6737: real time      2.6941

 eigenvalue-minimisations  :     0
 total energy-change (2. order) : 0.4967032E+02  (-0.2313756E+02)
 number of electron     128.0000000 magnetization 
 augmentation part       -0.4432089 magnetization 

 Free energy of the ion-electron system (eV)
  ---------------------------------------------------
  alpha Z        PSCENC =       118.91601032
  Ewald energy   TEWEN  =     -3118.12717471
  -Hartree energ DENC   =     -2592.09186527
  -exchange      EXHF   =         0.00000000
  -V(xc)+E(xc)   XCENC  =       396.65695192
  PAW double counting   =     49258.72236459   -49192.69782978
  entropy T*S    EENTRO =        -0.00000000
  eigenvalues    EBANDS =      -706.42141406
  atomic energy  EATOM  =      5606.28738325
  ---------------------------------------------------
  free energy    TOTEN  =      -228.75557374 eV

  energy without entropy =     -228.75557374  energy(sigma->0) =     -228.75557374


--------------------------------------------------------------------------------------------------------




--------------------------------------- Iteration      1(   7)  ---------------------------------------


    POTLOK:  cpu time      0.0220: real time      0.0220
    SETDIJ:  cpu time      0.0020: real time      0.0020
    TRIAL :  cpu time      1.5998: real time      1.6004
    CORREC:  cpu time      0.8524: real time      0.8529
    CHARGE:  cpu time      0.1045: real time      0.1045
    --------------------------------------------
      LOOP:  cpu time      2.5924: real time      2.6122

 eigenvalue-minimisations  :     0
 total energy-change (2. order) :-0.2314848E+02  (-0.2228324E+01)
 number of electron     128.0000000 magnetization 
 augmentation part       -0.5224121 magnetization 

 Free energy of the ion-electron system (eV)
  ---------------------------------------------------
  alpha Z        PSCENC =       118.91601032
  Ewald energy   TEWEN  =     -3118.12717471
  -Hartree energ DENC   =     -2275.50747809
  -exchange      EXHF   =         0.00000000
  -V(xc)+E(xc)   XCENC  =       377.13345515
  PAW double counting   =     64685.57274573   -64617.34498435
  entropy T*S    EENTRO =        -0.00000000
  eigenvalues    EBANDS =     -1028.83400893
  atomic energy  EATOM  =      5606.28738325
  ---------------------------------------------------
  free energy    TOTEN  =      -251.90405162 eV

  energy without entropy =     -251.90405162  energy(sigma->0) =     -251.90405162


--------------------------------------------------------------------------------------------------------




--------------------------------------- Iteration      1(   8)  ---------------------------------------


    POTLOK:  cpu time      0.0219: real time      0.0219
    SETDIJ:  cpu time      0.0021: real time      0.0021
    TRIAL :  cpu time      1.5994: real time      1.6001
    CORREC:  cpu time      0.8536: real time      0.8539
    CHARGE:  cpu time      0.1042: real time      0.1042
    --------------------------------------------
      LOOP:  cpu time      2.5959: real time      2.6105

 eigenvalue-minimisations  :     0
 total energy-change (2. order) :-0.2228470E+01  (-0.6279448E+00)
 number of electron     128.0000000 magnetization 
 augmentation part       -0.5075809 magnetization 

 Free energy of the ion-electron system (eV)
  ---------------------------------------------------
  alpha Z        PSCENC =       118.91601032
  Ewald energy   TEWEN  =     -3118.12717471
  -Hartree energ DENC   =     -2266.03921205
  -exchange      EXHF   =         0.00000000
  -V(xc)+E(xc)   XCENC  =       376.80884095
  PAW double counting   =     67345.44046011   -67276.94180342
  entropy T*S    EENTRO =        -0.00000000
  eigenvalues    EBANDS =     -1040.47702627
  atomic energy  EATOM  =      5606.28738325
  ---------------------------------------------------
  free energy    TOTEN  =      -254.13252181 eV

  energy without entropy =     -254.13252181  energy(sigma->0) =     -254.13252181


--------------------------------------------------------------------------------------------------------




--------------------------------------- Iteration      1(   9)  ---------------------------------------


    POTLOK:  cpu time      0.0221: real time      0.0221
    SETDIJ:  cpu time      0.0020: real time      0.0020
    TRIAL :  cpu time      1.5949: real time      1.5960
    CORREC:  cpu time      0.8545: real time      0.8550
    CHARGE:  cpu time      0.1046: real time      0.1046
    --------------------------------------------
      LOOP:  cpu time      2.5895: real time      2.6096

 eigenvalue-minimisations  :     0
 total energy-change (2. order) :-0.6257075E+00  (-0.1779347E+00)
 number of electron     128.0000000 magnetization 
 augmentation part       -0.4926518 magnetization 

 Free energy of the ion-electron system (eV)
  ---------------------------------------------------
  alpha Z        PSCENC =       118.91601032
  Ewald energy   TEWEN  =     -3118.12717471
  -Hartree energ DENC   =     -2263.13819444
  -exchange      EXHF   =         0.00000000
  -V(xc)+E(xc)   XCENC  =       376.78657259
  PAW double counting   =     67060.95914522   -66992.43482759
  entropy T*S    EENTRO =        -0.00000000
  eigenvalues    EBANDS =     -1044.00714399
  atomic energy  EATOM  =      5606.28738325
  ---------------------------------------------------
  free energy    TOTEN  =      -254.75822936 eV

  energy without entropy =     -254.75822936  energy(sigma->0) =     -254.75822936


--------------------------------------------------------------------------------------------------------




--------------------------------------- Iteration      1(  10)  ---------------------------------------


    POTLOK:  cpu time      0.0218: real time      0.0218
    SETDIJ:  cpu time      0.0020: real time      0.0020
    TRIAL :  cpu time      1.5946: real time      1.5956
    CORREC:  cpu time      0.8527: real time      0.8527
    CHARGE:  cpu time      0.1045: real time      0.1045
    --------------------------------------------
      LOOP:  cpu time      2.6049: real time      2.6062

 eigenvalue-minimisations  :     0
 total energy-change (2. order) :-0.1774273E+00  (-0.4892072E-01)
 number of electron     128.0000000 magnetization 
 augmentation part       -0.4901427 magnetization 

 Free energy of the ion-electron system (eV)
  ---------------------------------------------------
  alpha Z        PSCENC =       118.91601032
  Ewald energy   TEWEN  =     -3118.12717471
  -Hartree energ DENC   =     -2260.27047160
  -exchange      EXHF   =         0.00000000
  -V(xc)+E(xc)   XCENC  =       376.59496999
  PAW double counting   =     65695.22981105   -65626.73652464
  entropy T*S    EENTRO =        -0.00000000
  eigenvalues    EBANDS =     -1046.82966036
  atomic energy  EATOM  =      5606.28738325
  ---------------------------------------------------
  free energy    TOTEN  =      -254.93565670 eV

  energy without entropy =     -254.93565670  energy(sigma->0) =     -254.93565670


--------------------------------------------------------------------------------------------------------




--------------------------------------- Iteration      1(  11)  ---------------------------------------


    POTLOK:  cpu time      0.0221: real time      0.0221
    SETDIJ:  cpu time      0.0020: real time      0.0020
    TRIAL :  cpu time      1.5956: real time      1.5962
    CORREC:  cpu time      0.8531: real time      0.8535
    CHARGE:  cpu time      0.1045: real time      0.1045
    --------------------------------------------
      LOOP:  cpu time      2.5919: real time      2.6125

 eigenvalue-minimisations  :     0
 total energy-change (2. order) :-0.4884766E-01  (-0.1160633E-01)
 number of electron     128.0000000 magnetization 
 augmentation part       -0.4906390 magnetization 

 Free energy of the ion-electron system (eV)
  ---------------------------------------------------
  alpha Z        PSCENC =       118.91601032
  Ewald energy   TEWEN  =     -3118.12717471
  -Hartree energ DENC   =     -2259.50657483
  -exchange      EXHF   =         0.00000000
  -V(xc)+E(xc)   XCENC  =       376.51641552
  PAW double counting   =     65003.44165870   -64934.96840883
  entropy T*S    EENTRO =        -0.00000000
  eigenvalues    EBANDS =     -1047.54381377
  atomic energy  EATOM  =      5606.28738325
  ---------------------------------------------------
  free energy    TOTEN  =      -254.98450436 eV

  energy without entropy =     -254.98450436  energy(sigma->0) =     -254.98450436


--------------------------------------------------------------------------------------------------------




--------------------------------------- Iteration      1(  12)  ---------------------------------------


    POTLOK:  cpu time      0.0219: real time      0.0219
    SETDIJ:  cpu time      0.0020: real time      0.0020
    TRIAL :  cpu time      1.6190: real time      1.6199
    CORREC:  cpu time      0.8692: real time      0.8697
    CHARGE:  cpu time      0.1051: real time      0.1051
    --------------------------------------------
      LOOP:  cpu time      2.6310: real time      2.6492

 eigenvalue-minimisations  :     0
 total energy-change (2. order) :-0.1159460E-01  (-0.2857423E-02)
 number of electron     128.0000000 magnetization 
 augmentation part       -0.4915950 magnetization 

 Free energy of the ion-electron system (eV)
  ---------------------------------------------------
  alpha Z        PSCENC =       118.91601032
  Ewald energy   TEWEN  =     -3118.12717471
  -Hartree energ DENC   =     -2258.75680036
  -exchange      EXHF   =         0.00000000
  -V(xc)+E(xc)   XCENC  =       376.46286604
  PAW double counting   =     65018.82952509   -64950.35464737
  entropy T*S    EENTRO =        -0.00000000
  eigenvalues    EBANDS =     -1048.25326120
  atomic energy  EATOM  =      5606.28738325
  ---------------------------------------------------
  free energy    TOTEN  =      -254.99609896 eV

  energy without entropy =     -254.99609896  energy(sigma->0) =     -254.99609896


--------------------------------------------------------------------------------------------------------




--------------------------------------- Iteration      1(  13)  ---------------------------------------


    POTLOK:  cpu time      0.0221: real time      0.0222
    SETDIJ:  cpu time      0.0020: real time      0.0020
    TRIAL :  cpu time      1.5943: real time      1.5949
    CORREC:  cpu time      0.8505: real time      0.8510
    CHARGE:  cpu time      0.1064: real time      0.1064
    --------------------------------------------
      LOOP:  cpu time      2.5876: real time      2.6063

 eigenvalue-minimisations  :     0
 total energy-change (2. order) :-0.2852244E-02  (-0.6375670E-03)
 number of electron     128.0000000 magnetization 
 augmentation part       -0.4918904 magnetization 

 Free energy of the ion-electron system (eV)
  ---------------------------------------------------
  alpha Z        PSCENC =       118.91601032
  Ewald energy   TEWEN  =     -3118.12717471
  -Hartree energ DENC   =     -2258.63761305
  -exchange      EXHF   =         0.00000000
  -V(xc)+E(xc)   XCENC  =       376.45610633
  PAW double counting   =     65118.78172791   -65050.30408101
  entropy T*S    EENTRO =        -0.00000000
  eigenvalues    EBANDS =     -1048.37131024
  atomic energy  EATOM  =      5606.28738325
  ---------------------------------------------------
  free energy    TOTEN  =      -254.99895121 eV

  energy without entropy =     -254.99895121  energy(sigma->0) =     -254.99895121


--------------------------------------------------------------------------------------------------------




--------------------------------------- Iteration      1(  14)  ---------------------------------------


    POTLOK:  cpu time      0.0220: real time      0.0220
    SETDIJ:  cpu time      0.0020: real time      0.0020
    TRIAL :  cpu time      1.5933: real time      1.5943
    CORREC:  cpu time      0.8504: real time      0.8509
    CHARGE:  cpu time      0.1048: real time      0.1048
    --------------------------------------------
      LOOP:  cpu time      2.5847: real time      2.6037

 eigenvalue-minimisations  :     0
 total energy-change (2. order) :-0.6370334E-03  (-0.1452241E-03)
 number of electron     128.0000000 magnetization 
 augmentation part       -0.4918529 magnetization 

 Free energy of the ion-electron system (eV)
  ---------------------------------------------------
  alpha Z        PSCENC =       118.91601032
  Ewald energy   TEWEN  =     -3118.12717471
  -Hartree energ DENC   =     -2258.57372127
  -exchange      EXHF   =         0.00000000
  -V(xc)+E(xc)   XCENC  =       376.45015336
  PAW double counting   =     65127.90108820   -65059.42245400
  entropy T*S    EENTRO =        -0.00000000
  eigenvalues    EBANDS =     -1048.43087339
  atomic energy  EATOM  =      5606.28738325
  ---------------------------------------------------
  free energy    TOTEN  =      -254.99958824 eV

  energy without entropy =     -254.99958824  energy(sigma->0) =     -254.99958824


--------------------------------------------------------------------------------------------------------




--------------------------------------- Iteration      1(  15)  ---------------------------------------


    POTLOK:  cpu time      0.0219: real time      0.0219
    SETDIJ:  cpu time      0.0020: real time      0.0020
    TRIAL :  cpu time      1.5957: real time      1.5966
    CORREC:  cpu time      0.8523: real time      0.8524
    CHARGE:  cpu time      0.1044: real time      0.1048
    --------------------------------------------
      LOOP:  cpu time      2.6061: real time      2.6077

 eigenvalue-minimisations  :     0
 total energy-change (2. order) :-0.1453858E-03  (-0.3476916E-04)
 number of electron     128.0000000 magnetization 
 augmentation part       -0.4918203 magnetization 

 Free energy of the ion-electron system (eV)
  ---------------------------------------------------
  alpha Z        PSCENC =       118.91601032
  Ewald energy   TEWEN  =     -3118.12717471
  -Hartree energ DENC   =     -2258.60492723
  -exchange      EXHF   =         0.00000000
  -V(xc)+E(xc)   XCENC  =       376.45215168
  PAW double counting   =     65101.92127483   -65033.44337431
  entropy T*S    EENTRO =        -0.00000000
  eigenvalues    EBANDS =     -1048.40107745
  atomic energy  EATOM  =      5606.28738325
  ---------------------------------------------------
  free energy    TOTEN  =      -254.99973363 eV

  energy without entropy =     -254.99973363  energy(sigma->0) =     -254.99973363


--------------------------------------------------------------------------------------------------------




--------------------------------------- Iteration      1(  16)  ---------------------------------------


    POTLOK:  cpu time      0.0233: real time      0.0233
    SETDIJ:  cpu time      0.0020: real time      0.0020
    TRIAL :  cpu time      1.5929: real time      1.5935
    CORREC:  cpu time      0.8509: real time      0.8514
    CHARGE:  cpu time      0.1045: real time      0.1045
    --------------------------------------------
      LOOP:  cpu time      2.5859: real time      2.6047

 eigenvalue-minimisations  :     0
 total energy-change (2. order) :-0.3499015E-04  (-0.9425108E-05)
 number of electron     128.0000000 magnetization 
 augmentation part       -0.4918099 magnetization 

 Free energy of the ion-electron system (eV)
  ---------------------------------------------------
  alpha Z        PSCENC =       118.91601032
  Ewald energy   TEWEN  =     -3118.12717471
  -Hartree energ DENC   =     -2258.59622948
  -exchange      EXHF   =         0.00000000
  -V(xc)+E(xc)   XCENC  =       376.45050638
  PAW double counting   =     65089.72311795   -65021.24537540
  entropy T*S    EENTRO =        -0.00000000
  eigenvalues    EBANDS =     -1048.40800691
  atomic energy  EATOM  =      5606.28738325
  ---------------------------------------------------
  free energy    TOTEN  =      -254.99976862 eV

  energy without entropy =     -254.99976862  energy(sigma->0) =     -254.99976862


--------------------------------------------------------------------------------------------------------




--------------------------------------- Iteration      1(  17)  ---------------------------------------


    POTLOK:  cpu time      0.0219: real time      0.0219
    SETDIJ:  cpu time      0.0021: real time      0.0021
    TRIAL :  cpu time      1.5968: real time      1.5977
    CORREC:  cpu time      0.8520: real time      0.8525
    CHARGE:  cpu time      0.1044: real time      0.1044
    --------------------------------------------
      LOOP:  cpu time      2.5916: real time      2.6080

 eigenvalue-minimisations  :     0
 total energy-change (2. order) :-0.9413467E-05  (-0.2779102E-05)
 number of electron     128.0000000 magnetization 
 augmentation part       -0.4918144 magnetization 

 Free energy of the ion-electron system (eV)
  ---------------------------------------------------
  alpha Z        PSCENC =       118.91601032
  Ewald energy   TEWEN  =     -3118.12717471
  -Hartree energ DENC   =     -2258.61260339
  -exchange      EXHF   =         0.00000000
  -V(xc)+E(xc)   XCENC  =       376.45134805
  PAW double counting   =     65091.29507824   -65022.81744352
  entropy T*S    EENTRO =        -0.00000000
  eigenvalues    EBANDS =     -1048.39237627
  atomic energy  EATOM  =      5606.28738325
  ---------------------------------------------------
  free energy    TOTEN  =      -254.99977803 eV

  energy without entropy =     -254.99977803  energy(sigma->0) =     -254.99977803


--------------------------------------------------------------------------------------------------------




--------------------------------------- Iteration      1(  18)  ---------------------------------------


    POTLOK:  cpu time      0.0219: real time      0.0219
    SETDIJ:  cpu time      0.0020: real time      0.0020
    TRIAL :  cpu time      1.5954: real time      1.5961
    CORREC:  cpu time      0.8498: real time      0.8503
    CHARGE:  cpu time      0.1044: real time      0.1044
    --------------------------------------------
      LOOP:  cpu time      2.5859: real time      2.6045

 eigenvalue-minimisations  :     0
 total energy-change (2. order) :-0.2711473E-05  (-0.7779251E-06)
 number of electron     128.0000000 magnetization 
 augmentation part       -0.4918146 magnetization 

 Free energy of the ion-electron system (eV)
  ---------------------------------------------------
  alpha Z        PSCENC =       118.91601032
  Ewald energy   TEWEN  =     -3118.12717471
  -Hartree energ DENC   =     -2258.62217568
  -exchange      EXHF   =         0.00000000
  -V(xc)+E(xc)   XCENC  =       376.45194208
  PAW double counting   =     65098.46058137   -65029.98289608
  entropy T*S    EENTRO =        -0.00000000
  eigenvalues    EBANDS =     -1048.38345130
  atomic energy  EATOM  =      5606.28738325
  ---------------------------------------------------
  free energy    TOTEN  =      -254.99978074 eV

  energy without entropy =     -254.99978074  energy(sigma->0) =     -254.99978074


--------------------------------------------------------------------------------------------------------




--------------------------------------- Iteration      1(  19)  ---------------------------------------


    POTLOK:  cpu time      0.0218: real time      0.0218
    SETDIJ:  cpu time      0.0020: real time      0.0020
    TRIAL :  cpu time      1.6268: real time      1.6281
    CORREC:  cpu time      0.8565: real time      0.8571
    CHARGE:  cpu time      0.1048: real time      0.1048
    --------------------------------------------
      LOOP:  cpu time      2.6261: real time      2.6431

 eigenvalue-minimisations  :     0
 total energy-change (2. order) :-0.7594645E-06  (-0.2045744E-06)
 number of electron     128.0000000 magnetization 
 augmentation part       -0.4918107 magnetization 

 Free energy of the ion-electron system (eV)
  ---------------------------------------------------
  alpha Z        PSCENC =       118.91601032
  Ewald energy   TEWEN  =     -3118.12717471
  -Hartree energ DENC   =     -2258.62167392
  -exchange      EXHF   =         0.00000000
  -V(xc)+E(xc)   XCENC  =       376.45205160
  PAW double counting   =     65102.66319270   -65034.18548538
  entropy T*S    EENTRO =        -0.00000000
  eigenvalues    EBANDS =     -1048.38408535
  atomic energy  EATOM  =      5606.28738325
  ---------------------------------------------------
  free energy    TOTEN  =      -254.99978150 eV

  energy without entropy =     -254.99978150  energy(sigma->0) =     -254.99978150


--------------------------------------------------------------------------------------------------------




--------------------------------------- Iteration      1(  20)  ---------------------------------------


    POTLOK:  cpu time      0.0219: real time      0.0219
    SETDIJ:  cpu time      0.0020: real time      0.0020
    TRIAL :  cpu time      1.5989: real time      1.5998
    CORREC:  cpu time      0.8506: real time      0.8511
    CHARGE:  cpu time      0.1048: real time      0.1048
    --------------------------------------------
      LOOP:  cpu time      2.5904: real time      2.6084

 eigenvalue-minimisations  :     0
 total energy-change (2. order) :-0.2056040E-06  (-0.6975619E-07)
 number of electron     128.0000000 magnetization 
 augmentation part       -0.4918086 magnetization 

 Free energy of the ion-electron system (eV)
  ---------------------------------------------------
  alpha Z        PSCENC =       118.91601032
  Ewald energy   TEWEN  =     -3118.12717471
  -Hartree energ DENC   =     -2258.62282481
  -exchange      EXHF   =         0.00000000
  -V(xc)+E(xc)   XCENC  =       376.45212583
  PAW double counting   =     65103.11785596   -65034.64017108
  entropy T*S    EENTRO =        -0.00000000
  eigenvalues    EBANDS =     -1048.38298646
  atomic energy  EATOM  =      5606.28738325
  ---------------------------------------------------
  free energy    TOTEN  =      -254.99978171 eV

  energy without entropy =     -254.99978171  energy(sigma->0) =     -254.99978171


--------------------------------------------------------------------------------------------------------




--------------------------------------- Iteration      1(  21)  ---------------------------------------


    POTLOK:  cpu time      0.0219: real time      0.0219
    SETDIJ:  cpu time      0.0020: real time      0.0020
    TRIAL :  cpu time      1.5968: real time      1.5974
    CORREC:  cpu time      0.8513: real time      0.8518
    EDDIAG:  cpu time      0.7984: real time      0.7990
    CHARGE:  cpu time      0.1066: real time      0.1068
    --------------------------------------------
      LOOP:  cpu time      3.3954: real time      3.4092

 eigenvalue-minimisations  :     0
 total energy-change (2. order) :-0.6982009E-07  (-0.3863956E-07)
 number of electron     128.0000000 magnetization 
 augmentation part       -0.4918114 magnetization 

 Free energy of the ion-electron system (eV)
  ---------------------------------------------------
  alpha Z        PSCENC =       118.91601032
  Ewald energy   TEWEN  =     -3118.12717471
  -Hartree energ DENC   =     -2258.62308381
  -exchange      EXHF   =         0.00000000
  -V(xc)+E(xc)   XCENC  =       376.45217137
  PAW double counting   =     65102.56534731   -65034.08768545
  entropy T*S    EENTRO =        -0.00000000
  eigenvalues    EBANDS =     -1048.38275006
  atomic energy  EATOM  =      5606.28738325
  ---------------------------------------------------
  free energy    TOTEN  =      -254.99978178 eV

  energy without entropy =     -254.99978178  energy(sigma->0) =     -254.99978178


--------------------------------------------------------------------------------------------------------


  average scaling for gradient   0.8351


 average (electrostatic) potential at core
  the test charge radii are     0.5902  0.5770  0.4325
  (the norm of the test charge is              1.0000)
       1 -99.3590       2 -99.3590       3 -99.3588       4 -99.3588       5 -99.3586
       6 -99.3586       7 -99.3588       8 -99.3589       9 -98.0963      10 -98.0963
      11 -98.0964      12 -98.0964      13 -98.0964      14 -98.0964      15 -98.0963
      16 -98.0964      17 -83.0450      18 -83.0450      19 -83.0450      20 -83.0449
      21 -83.0449      22 -83.0449      23 -83.0450      24 -83.0450      25 -41.8822
      26 -41.8822      27 -41.8826      28 -41.8826      29 -41.8820      30 -41.8821
      31 -41.8820      32 -41.8820      33 -41.9539      34 -41.9539      35 -41.9544
      36 -41.9543      37 -41.9537      38 -41.9537      39 -41.9535      40 -41.9534



 E-fermi :  -0.7140     XC(G=0):  -7.7493     alpha+bet : -6.6399

 Fermi energy:        -0.7140008418

 k-point     1 :       0.0000    0.0000    0.0000
  band No.  band energies     occupation 
      1     -18.8642      2.00000
      2     -18.6942      2.00000
      3     -18.5953      2.00000
      4     -18.5653      2.00000
      5     -18.5495      2.00000
      6     -18.5437      2.00000
      7     -18.5340      2.00000
      8     -18.4957      2.00000
      9     -16.9551      2.00000
     10     -16.8422      2.00000
     11     -16.7845      2.00000
     12     -16.7541      2.00000
     13     -16.7198      2.00000
     14     -16.7105      2.00000
     15     -16.6095      2.00000
     16     -16.5662      2.00000
     17      -9.7059      2.00000
     18      -9.5515      2.00000
     19      -9.3908      2.00000
     20      -9.3541      2.00000
     21      -9.3369      2.00000
     22      -9.2153      2.00000
     23      -9.2140      2.00000
     24      -9.2070      2.00000
     25      -8.4738      2.00000
     26      -8.4532      2.00000
     27      -8.3338      2.00000
     28      -8.2353      2.00000
     29      -8.2301      2.00000
     30      -8.1771      2.00000
     31      -7.9637      2.00000
     32      -7.9323      2.00000
     33      -5.0448      2.00000
     34      -4.9440      2.00000
     35      -4.7460      2.00000
     36      -4.7211      2.00000
     37      -4.5847      2.00000
     38      -4.5600      2.00000
     39      -4.5072      2.00000
     40      -4.3095      2.00000
     41      -4.1677      2.00000
     42      -4.1261      2.00000
     43      -4.1245      2.00000
     44      -4.0817      2.00000
     45      -3.9215      2.00000
     46      -3.9053      2.00000
     47      -3.8744      2.00000
     48      -3.8063      2.00000
     49      -3.0122      2.00000
     50      -2.9808      2.00000
     51      -2.9715      2.00000
     52      -2.9665      2.00000
     53      -2.7201      2.00000
     54      -2.7178      2.00000
     55      -2.6297      2.00000
     56      -2.5723      2.00000
     57      -1.6271      2.00000
     58      -1.2724      2.00000
     59      -1.1559      2.00000
     60      -0.9524      2.00000
     61      -0.8989      2.00000
     62      -0.8976      2.00000
     63      -0.8784      2.00000
     64      -0.8238      2.00000
     65       4.1113      0.00000
     66       4.4432      0.00000
     67       4.5834      0.00000
     68       4.7227      0.00000
     69       4.7532      0.00000
     70       4.7602      0.00000
     71       5.0903      0.00000
     72       5.1694      0.00000
     73       5.2736      0.00000
     74       5.5482      0.00000
     75       5.5708      0.00000
     76       5.7375      0.00000
     77       6.1279      0.00000
     78       6.2046      0.00000
     79       6.2315      0.00000
     80       6.3646      0.00000
     81       6.5026      0.00000
     82       6.6927      0.00000
     83       7.8045      0.00000
     84       7.8257      0.00000
     85       7.9634      0.00000
     86       8.0992      0.00000
     87       8.2485      0.00000
     88       8.5979      0.00000

 k-point     2 :       0.2500    0.0000    0.0000
  band No.  band energies     occupation 
      1     -18.8349      2.00000
      2     -18.6783      2.00000
      3     -18.6612      2.00000
      4     -18.5913      2.00000
      5     -18.5439      2.00000
[...]
     50      -3.0703      2.00000
     51      -2.9347      2.00000
     52      -2.9343      2.00000
     53      -2.7755      2.00000
     54      -2.7750      2.00000
     55      -2.7261      2.00000
     56      -2.7260      2.00000
     57      -1.2682      2.00000
     58      -1.2681      2.00000
     59      -1.1014      2.00000
     60      -1.1013      2.00000
     61      -0.9525      2.00000
     62      -0.9524      2.00000
     63      -0.8580      2.00000
     64      -0.8579      2.00000
     65       4.4293      0.00000
     66       4.4295      0.00000
     67       4.6184      0.00000
     68       4.6185      0.00000
     69       4.9146      0.00000
     70       4.9149      0.00000
     71       5.0043      0.00000
     72       5.0043      0.00000
     73       5.7056      0.00000
     74       5.7056      0.00000
     75       5.8880      0.00000
     76       5.8880      0.00000
     77       6.1927      0.00000
     78       6.1929      0.00000
     79       6.4366      0.00000
     80       6.4366      0.00000
     81       6.6507      0.00000
     82       6.6508      0.00000
     83       7.0163      0.00000
     84       7.0165      0.00000
     85       7.6174      0.00000
     86       7.6178      0.00000
     87       8.0250      0.00000
     88       8.0306      0.00000

 k-point    25 :       0.2500    0.5000   -0.3333
  band No.  band energies     occupation 
      1     -18.6773      2.00000
      2     -18.6770      2.00000
      3     -18.6207      2.00000
      4     -18.6202      2.00000
      5     -18.5873      2.00000
      6     -18.5870      2.00000
      7     -18.5559      2.00000
      8     -18.5554      2.00000
      9     -16.7920      2.00000
     10     -16.7918      2.00000
     11     -16.7677      2.00000
     12     -16.7675      2.00000
     13     -16.7017      2.00000
     14     -16.7015      2.00000
     15     -16.6964      2.00000
     16     -16.6962      2.00000
     17      -9.4831      2.00000
     18      -9.4827      2.00000
     19      -9.4286      2.00000
     20      -9.4282      2.00000
     21      -9.2973      2.00000
     22      -9.2968      2.00000
     23      -9.2764      2.00000
     24      -9.2760      2.00000
     25      -8.3543      2.00000
     26      -8.3541      2.00000
     27      -8.2946      2.00000
     28      -8.2944      2.00000
     29      -8.1539      2.00000
     30      -8.1537      2.00000
     31      -8.1376      2.00000
     32      -8.1375      2.00000
     33      -4.7912      2.00000
     34      -4.7912      2.00000
     35      -4.7086      2.00000
     36      -4.7084      2.00000
     37      -4.4086      2.00000
     38      -4.4085      2.00000
     39      -4.3752      2.00000
     40      -4.3751      2.00000
     41      -4.2358      2.00000
     42      -4.2357      2.00000
     43      -4.1709      2.00000
     44      -4.1708      2.00000
     45      -3.9921      2.00000
     46      -3.9921      2.00000
     47      -3.9118      2.00000
     48      -3.9118      2.00000
     49      -3.0706      2.00000
     50      -3.0704      2.00000
     51      -2.9347      2.00000
     52      -2.9343      2.00000
     53      -2.7754      2.00000
     54      -2.7751      2.00000
     55      -2.7263      2.00000
     56      -2.7258      2.00000
     57      -1.2682      2.00000
     58      -1.2681      2.00000
     59      -1.1014      2.00000
     60      -1.1013      2.00000
     61      -0.9525      2.00000
     62      -0.9524      2.00000
     63      -0.8580      2.00000
     64      -0.8579      2.00000
     65       4.4293      0.00000
     66       4.4295      0.00000
     67       4.6183      0.00000
     68       4.6186      0.00000
     69       4.9147      0.00000
     70       4.9148      0.00000
     71       5.0042      0.00000
     72       5.0044      0.00000
     73       5.7056      0.00000
     74       5.7056      0.00000
     75       5.8880      0.00000
     76       5.8881      0.00000
     77       6.1927      0.00000
     78       6.1929      0.00000
     79       6.4365      0.00000
     80       6.4366      0.00000
     81       6.6507      0.00000
     82       6.6508      0.00000
     83       7.0163      0.00000
     84       7.0165      0.00000
     85       7.6169      0.00000
     86       7.6175      0.00000
     87       8.0251      0.00000
     88       8.0270      0.00000

 k-point    26 :       0.5000    0.5000    0.3333
  band No.  band energies     occupation 
      1     -18.6360      2.00000
      2     -18.6358      2.00000
      3     -18.6355      2.00000
      4     -18.6354      2.00000
      5     -18.5851      2.00000
      6     -18.5849      2.00000
      7     -18.5846      2.00000
      8     -18.5845      2.00000
      9     -16.7806      2.00000
     10     -16.7805      2.00000
     11     -16.7805      2.00000
     12     -16.7804      2.00000
     13     -16.6990      2.00000
     14     -16.6989      2.00000
     15     -16.6988      2.00000
     16     -16.6987      2.00000
     17      -9.4493      2.00000
     18      -9.4493      2.00000
     19      -9.4489      2.00000
     20      -9.4488      2.00000
     21      -9.2990      2.00000
     22      -9.2990      2.00000
     23      -9.2985      2.00000
     24      -9.2985      2.00000
     25      -8.2569      2.00000
     26      -8.2567      2.00000
     27      -8.2563      2.00000
     28      -8.2563      2.00000
     29      -8.2024      2.00000
     30      -8.2022      2.00000
     31      -8.2018      2.00000
     32      -8.2018      2.00000
     33      -4.6459      2.00000
     34      -4.6457      2.00000
     35      -4.6456      2.00000
     36      -4.6455      2.00000
     37      -4.5004      2.00000
     38      -4.5002      2.00000
     39      -4.5001      2.00000
     40      -4.5000      2.00000
     41      -4.2125      2.00000
     42      -4.2125      2.00000
     43      -4.2125      2.00000
     44      -4.2124      2.00000
     45      -3.9393      2.00000
     46      -3.9393      2.00000
     47      -3.9392      2.00000
     48      -3.9392      2.00000
     49      -2.9699      2.00000
     50      -2.9697      2.00000
     51      -2.9696      2.00000
     52      -2.9694      2.00000
     53      -2.8168      2.00000
     54      -2.8166      2.00000
     55      -2.8165      2.00000
     56      -2.8162      2.00000
     57      -1.1583      2.00000
     58      -1.1583      2.00000
     59      -1.1582      2.00000
     60      -1.1581      2.00000
     61      -0.9263      2.00000
     62      -0.9262      2.00000
     63      -0.9261      2.00000
     64      -0.9261      2.00000
     65       4.5123      0.00000
     66       4.5124      0.00000
     67       4.5126      0.00000
     68       4.5127      0.00000
     69       4.9671      0.00000
     70       4.9672      0.00000
     71       4.9673      0.00000
     72       4.9675      0.00000
     73       5.9114      0.00000
     74       5.9114      0.00000
     75       5.9115      0.00000
     76       5.9115      0.00000
     77       6.2326      0.00000
     78       6.2326      0.00000
     79       6.2328      0.00000
     80       6.2328      0.00000
     81       7.0772      0.00000
     82       7.0773      0.00000
     83       7.0774      0.00000
     84       7.0785      0.00000
     85       7.5738      0.00000
     86       7.5740      0.00000
     87       7.5742      0.00000
     88       7.5757      0.00000


--------------------------------------------------------------------------------------------------------


 soft charge-density along one line, spin component           1
         0         1         2         3         4         5         6         7         8         9
 total charge-density along one line

 pseudopotential strength for first ion, spin component:           1
 19.903  27.876  -0.017   0.019  -0.010  -0.026   0.028  -0.014
 27.876  39.043  -0.024   0.026  -0.013  -0.036   0.039  -0.020
 -0.017  -0.024  -5.758   0.005   0.008  -8.639   0.007   0.012
  0.019   0.026   0.005  -5.766   0.003   0.007  -8.652   0.004
 -0.010  -0.013   0.008   0.003  -5.753   0.012   0.004  -8.631
 -0.026  -0.036  -8.639   0.007   0.012 -12.942   0.011   0.018
  0.028   0.039   0.007  -8.652   0.004   0.011 -12.962   0.007
 -0.014  -0.020   0.012   0.004  -8.631   0.018   0.007 -12.930
 total augmentation occupancy for first ion, spin component:           1
 13.200  -6.330  -1.391   1.795  -0.621   0.714  -0.980   0.289
 -6.330   3.101   0.930  -1.227   0.399  -0.441   0.635  -0.162
 -1.391   0.930   7.446  -1.108  -1.866  -2.931   0.649   1.039
  1.795  -1.227  -1.108   9.607  -0.711   0.648  -4.167   0.394
 -0.621   0.399  -1.866  -0.711   6.195   1.039   0.394  -2.216
  0.714  -0.441  -2.931   0.648   1.039   1.194  -0.337  -0.499
 -0.980   0.635   0.649  -4.167   0.394  -0.337   1.824  -0.189
  0.289  -0.162   1.039   0.394  -2.216  -0.499  -0.189   0.837


------------------------ aborting loop because EDIFF is reached ----------------------------------------


    FORLOC:  cpu time      0.0065: real time      0.0065
    FORNL :  cpu time      0.8681: real time      0.8691
    FORCOR:  cpu time      0.0256: real time      0.0256
    OFIELD:  cpu time      0.0024: real time      0.0028

 VOLUME and BASIS-vectors are now :
 -----------------------------------------------------------------------------
  energy-cutoff  :     1000.00
  volume of cell :      415.65
      direct lattice vectors                 reciprocal lattice vectors
     6.856000000  0.000000000  0.000000000     0.145857643  0.000000000  0.000000000
     0.000000000  6.628000000  0.000000000     0.000000000  0.150875075  0.000000000
     0.000000000  0.000000000  9.147000000     0.000000000  0.000000000  0.109325462

  length of vectors
     6.856000000  6.628000000  9.147000000     0.145857643  0.150875075  0.109325462


 FORCES acting on ions:
    Electron-Ion                     Ewald-Force                    Non-Local-Force
 -----------------------------------------------------------------------------------------------
   -.535E+01 -.378E+02 0.832E+02   0.104E+02 0.470E+02 -.931E+02   -.509E+01 -.928E+01 0.988E+01
   0.535E+01 0.378E+02 -.832E+02   -.104E+02 -.470E+02 0.931E+02   0.509E+01 0.928E+01 -.988E+01
   0.535E+01 0.377E+02 0.832E+02   -.104E+02 -.469E+02 -.931E+02   0.509E+01 0.928E+01 0.988E+01
   -.535E+01 -.377E+02 -.832E+02   0.104E+02 0.470E+02 0.931E+02   -.509E+01 -.928E+01 -.988E+01
   0.535E+01 -.377E+02 -.832E+02   -.104E+02 0.469E+02 0.931E+02   0.509E+01 -.928E+01 -.988E+01
   -.535E+01 0.377E+02 0.832E+02   0.104E+02 -.469E+02 -.931E+02   -.509E+01 0.928E+01 0.988E+01
   -.535E+01 0.377E+02 -.832E+02   0.104E+02 -.470E+02 0.931E+02   -.509E+01 0.928E+01 -.988E+01
   0.535E+01 -.377E+02 0.832E+02   -.104E+02 0.470E+02 -.931E+02   0.509E+01 -.928E+01 0.988E+01
   -.329E+01 0.586E+02 -.143E+03   0.393E+01 -.731E+02 0.174E+03   -.641E+00 0.143E+02 -.306E+02
   0.329E+01 -.586E+02 0.143E+03   -.393E+01 0.731E+02 -.174E+03   0.641E+00 -.143E+02 0.306E+02
   0.329E+01 -.587E+02 -.143E+03   -.393E+01 0.731E+02 0.174E+03   0.641E+00 -.143E+02 -.306E+02
   -.329E+01 0.587E+02 0.143E+03   0.393E+01 -.731E+02 -.174E+03   -.641E+00 0.143E+02 0.306E+02
   0.329E+01 0.587E+02 0.143E+03   -.393E+01 -.731E+02 -.174E+03   0.640E+00 0.143E+02 0.306E+02
   -.329E+01 -.587E+02 -.143E+03   0.393E+01 0.731E+02 0.174E+03   -.640E+00 -.143E+02 -.306E+02
   -.329E+01 -.586E+02 0.143E+03   0.393E+01 0.731E+02 -.174E+03   -.642E+00 -.143E+02 0.306E+02
   0.329E+01 0.586E+02 -.143E+03   -.393E+01 -.731E+02 0.174E+03   0.641E+00 0.143E+02 -.306E+02
   0.310E+01 -.136E+02 0.376E+02   -.325E+01 0.943E+01 -.302E+02   0.143E+00 0.450E+01 -.812E+01
   -.310E+01 0.136E+02 -.376E+02   0.325E+01 -.943E+01 0.302E+02   -.143E+00 -.450E+01 0.812E+01
   -.310E+01 0.136E+02 0.376E+02   0.325E+01 -.944E+01 -.302E+02   -.142E+00 -.450E+01 -.813E+01
   0.310E+01 -.136E+02 -.376E+02   -.325E+01 0.944E+01 0.302E+02   0.142E+00 0.450E+01 0.813E+01
   -.310E+01 -.136E+02 -.376E+02   0.325E+01 0.946E+01 0.302E+02   -.143E+00 0.450E+01 0.813E+01
   0.310E+01 0.136E+02 0.376E+02   -.325E+01 -.946E+01 -.302E+02   0.143E+00 -.450E+01 -.813E+01
   0.311E+01 0.136E+02 -.376E+02   -.326E+01 -.944E+01 0.302E+02   0.142E+00 -.450E+01 0.813E+01
   -.310E+01 -.136E+02 0.376E+02   0.325E+01 0.944E+01 -.302E+02   -.143E+00 0.450E+01 -.813E+01
   -.206E+02 0.194E+02 0.433E+02   0.237E+02 -.223E+02 -.490E+02   -.314E+01 0.286E+01 0.567E+01
   0.206E+02 -.194E+02 -.433E+02   -.237E+02 0.223E+02 0.490E+02   0.315E+01 -.286E+01 -.567E+01
   0.206E+02 -.194E+02 0.434E+02   -.237E+02 0.223E+02 -.490E+02   0.315E+01 -.286E+01 0.567E+01
   -.206E+02 0.194E+02 -.434E+02   0.237E+02 -.223E+02 0.490E+02   -.315E+01 0.286E+01 -.567E+01
   0.206E+02 0.194E+02 -.433E+02   -.237E+02 -.223E+02 0.490E+02   0.315E+01 0.286E+01 -.567E+01
   -.206E+02 -.194E+02 0.433E+02   0.237E+02 0.223E+02 -.490E+02   -.315E+01 -.286E+01 0.567E+01
   -.206E+02 -.194E+02 -.433E+02   0.237E+02 0.223E+02 0.490E+02   -.314E+01 -.286E+01 -.567E+01
   0.206E+02 0.194E+02 0.433E+02   -.237E+02 -.223E+02 -.490E+02   0.314E+01 0.286E+01 0.567E+01
   0.341E+02 -.387E+02 0.152E+02   -.387E+02 0.440E+02 -.161E+02   0.461E+01 -.538E+01 0.911E+00
   -.341E+02 0.387E+02 -.152E+02   0.387E+02 -.440E+02 0.161E+02   -.461E+01 0.538E+01 -.911E+00
   -.341E+02 0.387E+02 0.152E+02   0.387E+02 -.440E+02 -.161E+02   -.461E+01 0.538E+01 0.912E+00
   0.341E+02 -.387E+02 -.152E+02   -.387E+02 0.440E+02 0.161E+02   0.461E+01 -.538E+01 -.912E+00
   -.341E+02 -.387E+02 -.152E+02   0.387E+02 0.440E+02 0.161E+02   -.461E+01 -.538E+01 -.912E+00
   0.341E+02 0.387E+02 0.152E+02   -.387E+02 -.440E+02 -.161E+02   0.461E+01 0.538E+01 0.912E+00
   0.341E+02 0.387E+02 -.152E+02   -.387E+02 -.440E+02 0.161E+02   0.461E+01 0.538E+01 -.911E+00
   -.341E+02 -.387E+02 0.152E+02   0.387E+02 0.440E+02 -.161E+02   -.461E+01 -.538E+01 0.911E+00
 -----------------------------------------------------------------------------------------------
   0.214E-02 -.135E-02 -.111E-03   -.213E-13 0.711E-13 -.128E-12   -.214E-02 0.135E-02 0.119E-03


 POSITION                                       TOTAL-FORCE (eV/Angst)
 -----------------------------------------------------------------------------------
      0.98679      1.10121      0.99078        -0.030812      0.018750     -0.071146
      5.86921      5.52682      8.15622         0.030823     -0.018785      0.071215
      2.44123      5.52683      5.56428         0.030242     -0.017919     -0.069427
      4.41477      1.10120      3.58272        -0.030244      0.017896      0.069439
      5.86923      4.41522      3.58273         0.030492      0.017349      0.068281
      0.98677      2.21281      5.56427        -0.030492     -0.017366     -0.068290
      4.41477      2.21281      8.15622        -0.031397     -0.018323      0.069347
      2.44121      4.41522      0.99079         0.031376      0.018206     -0.069151
      1.00419      6.60938      3.20382         0.004185     -0.159292      0.293217
      5.85181      0.01866      5.94318        -0.004171      0.159229     -0.293068
      2.42382      0.01860      7.77728        -0.004346      0.162603      0.299438
      4.43221      6.60940      1.36974         0.004320     -0.162545     -0.299371
      5.85183      3.29537      1.36974        -0.004493     -0.163573     -0.301806
      1.00416      3.33266      7.77726         0.004506      0.163563      0.301781
      4.43218      3.33260      5.94315         0.004158      0.161129     -0.296610
      2.42385      3.29539      3.20387        -0.004267     -0.160667      0.295933
      0.99084      0.49271      2.14750        -0.008554      0.129560     -0.273177
      5.86516      6.13533      6.99950         0.008535     -0.129478      0.272972
      2.43716      6.13530      6.72103         0.008755     -0.132933     -0.280796
      4.41885      0.49272      2.42599        -0.008739      0.132886      0.280718
      5.86515      3.80670      2.42595         0.009014      0.135382      0.286038
      0.99085      2.82133      6.72105        -0.009019     -0.135346     -0.285969
      4.41881      2.82132      6.99945        -0.008402     -0.132452      0.278850
      2.43718      3.80670      2.14757         0.008584      0.132295     -0.278821
      1.44156      0.67055      0.17059        -0.028142      0.022231      0.055619
      5.41444      5.95747      8.97641         0.028148     -0.022226     -0.055608
      1.98649      5.95746      4.74414         0.027067     -0.021236      0.053933
      4.86951      0.67059      4.40287        -0.027058      0.021218     -0.053969
      5.41448      3.98459      4.40292         0.027669      0.021676     -0.055262
      1.44152      2.64344      4.74408        -0.027647     -0.021684      0.055258
      4.86954      2.64349      8.97641        -0.028329     -0.022378     -0.055928
      1.98646      3.98455      0.17059         0.028388      0.022403      0.056215
      0.31571      1.87181      0.86440         0.044552     -0.069075      0.036798
      6.54029      4.75623      8.28259        -0.044556      0.069074     -0.036801
      3.11224      4.75627      5.43788        -0.042983      0.067275      0.036548
      3.74376      1.87176      3.70911         0.042986     -0.067267     -0.036555
      6.54028      5.18580      3.70912        -0.043982     -0.068523     -0.036994
      0.31571      1.44224      5.43788         0.043966      0.068513      0.036992
      3.74368      1.44220      8.28258         0.045212      0.069843     -0.036876
      3.11232      5.18582      0.86442        -0.045342     -0.070013      0.037035
 -----------------------------------------------------------------------------------
    total drift:                               -0.000001     -0.000005      0.000009


--------------------------------------------------------------------------------------------------------



  FREE ENERGIE OF THE ION-ELECTRON SYSTEM (eV)
  ---------------------------------------------------
  free  energy   TOTEN  =      -254.99978178 eV

  energy  without entropy=     -254.99978178  energy(sigma->0) =     -254.99978178



--------------------------------------------------------------------------------------------------------


    POTLOK:  cpu time      0.0277: real time      0.0277


--------------------------------------------------------------------------------------------------------


 stress matrix after NEB project (eV)
      0.00000      0.00000      0.00000
      0.00000      0.00000      0.00000
      0.00000      0.00000      0.00000
  FORCES: max atom, RMS     0.343312    0.214037
  FORCE total and by dimension    1.353691    0.301806
  Stress total and by dimension    0.000000    0.000000
     LOOP+:  cpu time     65.5158: real time     65.8869
    4ORBIT:  cpu time      0.0000: real time      0.0000

 total amount of memory used by VASP MPI-rank0    49410. kBytes
=======================================================================

   base      :      30000. kBytes
   nonl-proj :       2658. kBytes
   fftplans  :       1300. kBytes
   grid      :       2273. kBytes
   one-center:          3. kBytes
   wavefun   :      13176. kBytes

  
  
 General timing and accounting informations for this job:
 ========================================================
  
                  Total CPU time used (sec):       95.252
                            User time (sec):       93.187
                          System time (sec):        2.064
                         Elapsed time (sec):       99.508
  
                   Maximum memory used (kb):      211996.
                   Average memory used (kb):          N/A
  
                          Minor page faults:        24541
                          Major page faults:          277
                 Voluntary context switches:         6023
