 vasp.6.4.1 05Apr23 (build Jun  6 2023 14:36:51) complex                         
 executed on        HPECrayEX_GCC date 2024.08.20  14:36:36
 running  256 mpi-ranks, with    1 threads/rank, on    2 nodes
 distrk:  each k-point on  256 cores,    1 groups
 distr:  one band on NCORE=  64 cores,    4 groups


--------------------------------------------------------------------------------------------------------


 INCAR:
   ALGO = Conjugate
   NPAR = 4
   ISMEAR = 0
   SIGMA = 0.01
   PREC = Accurate
   EDIFF = 1E-7
   ENCUT = 1000
   ISIF = 0
   GGA = OR
   LUSE_VDW = .TRUE.
   AGGAC = 0.0000
   LASPH = .TRUE.
   LWAVE = .FALSE.
   LCHARGE = .FALSE.

 POTCAR:    PAW_PBE N_h 06Feb2004                 
 POTCAR:    PAW_PBE C_h 06Feb2004                 
 POTCAR:    PAW_PBE H_h 06Feb2004                 
 -----------------------------------------------------------------------------
|                                                                             |
|               ----> ADVICE to this user running VASP <----                  |
|                                                                             |
|     You have switched on vdW-DFT.                                           |
|     This routine was written and supplied by Jiri Klimes. We recommend      |
|     that you carefully read and cite the following publications:            |
|       J. Klimes, D.R. Bowler, A. Michelides                                 |
|          J. Phys.: Cond Matt. 22 022201 (2010)                              |
|       J. Klimes, D.R. Bowler, A. Michelides                                 |
|          Phys. Rev. B. 83, 195131 (2011)                                    |
|     and references therein.                                                 |
|                                                                             |
 -----------------------------------------------------------------------------

 POTCAR:    PAW_PBE N_h 06Feb2004                 
   VRHFIN =N: s2p3                                                                                  
   LEXCH  = PE                                                                                      
   EATOM  =   264.5486 eV,   19.4438 Ry                                                             
                                                                                                    
   TITEL  = PAW_PBE N_h 06Feb2004                                                                   
   LULTRA =        F    use ultrasoft PP ?                                                          
   IUNSCR =        1    unscreen: 0-lin 1-nonlin 2-no                                               
   RPACOR =    0.800    partial core radius                                                         
   POMASS =   14.001; ZVAL   =    5.000    mass and valenz                                          
   RCORE  =    1.100    outmost cutoff radius                                                       
   RWIGS  =    1.480; RWIGS  =    0.783    wigner-seitz radius (au A)                               
   ENMAX  =  700.000; ENMIN  =  500.000 eV                                                          
   ICORE  =        2    local potential                                                             
   LCOR   =        T    correct aug charges                                                         
   LPAW   =        T    paw PP                                                                      
   EAUG   =  904.640                                                                                
   DEXC   =    0.000                                                                                
   RMAX   =    1.127    core radius for proj-oper                                                   
   RAUG   =    1.300    factor for augmentation sphere                                              
   RDEP   =    1.115    radius for radial grids                                                     
   RDEPT  =    1.106    core radius for aug-charge                                                  
                                                                                                    
   Atomic configuration                                                                             
    4 entries                                                                                       
     n  l   j            E        occ.                                                              
     1  0  0.50      -384.7179   2.0000                                                             
     2  0  0.50       -18.5828   2.0000                                                             
     2  1  0.50        -7.0898   3.0000                                                             
     3  2  1.50        -6.8029   0.0000                                                             
   Description                                                                                      
     l       E           TYP  RCUT    TYP  RCUT                                                     
     0    -18.5828117     23  1.100                                                                 
     0    -15.0750597     23  1.100                                                                 
     1     -7.0897851     23  1.100                                                                 
     1     -1.9663412     23  1.100                                                                 
     2     -6.8029130      7  1.100                                                                 
  local pseudopotential read in
  partial core-charges read in
  partial kinetic energy density read in
  kinetic energy density of atom read in
  atomic valenz-charges read in
  non local Contribution for L=           0  read in
    real space projection operators read in
  non local Contribution for L=           0  read in
    real space projection operators read in
  non local Contribution for L=           1  read in
    real space projection operators read in
  non local Contribution for L=           1  read in
    real space projection operators read in
    PAW grid and wavefunctions read in

   number of l-projection  operators is LMAX  =           4
   number of lm-projection operators is LMMAX =           8

 POTCAR:    PAW_PBE C_h 06Feb2004                 
   VRHFIN =C: s2p2                                                                                  
   LEXCH  = PE                                                                                      
   EATOM  =   147.1560 eV,   10.8157 Ry                                                             
                                                                                                    
   TITEL  = PAW_PBE C_h 06Feb2004                                                                   
   LULTRA =        F    use ultrasoft PP ?                                                          
   IUNSCR =        1    unscreen: 0-lin 1-nonlin 2-no                                               
   RPACOR =    0.800    partial core radius                                                         
   POMASS =   12.011; ZVAL   =    4.000    mass and valenz                                          
   RCORE  =    1.100    outmost cutoff radius                                                       
   RWIGS  =    1.630; RWIGS  =    0.863    wigner-seitz radius (au A)                               
   ENMAX  =  700.000; ENMIN  =  500.000 eV                                                          
   ICORE  =        2    local potential                                                             
   LCOR   =        T    correct aug charges                                                         
   LPAW   =        T    paw PP                                                                      
   EAUG   =  946.768                                                                                
   DEXC   =    0.000                                                                                
   RMAX   =    1.128    core radius for proj-oper                                                   
   RAUG   =    1.300    factor for augmentation sphere                                              
   RDEP   =    1.162    radius for radial grids                                                     
   RDEPT  =    1.088    core radius for aug-charge                                                  
                                                                                                    
   Atomic configuration                                                                             
    4 entries                                                                                       
     n  l   j            E        occ.                                                              
     1  0  0.50      -273.3789   2.0000                                                             
     2  0  0.50       -13.7508   2.0000                                                             
     2  1  0.50        -5.2854   2.0000                                                             
     3  2  1.50        -5.4423   0.0000                                                             
   Description                                                                                      
     l       E           TYP  RCUT    TYP  RCUT                                                     
     0    -13.7508458     23  1.100                                                                 
     0     -8.2022199     23  1.100                                                                 
     1     -5.2854383     23  1.100                                                                 
     1      1.1560700     23  1.100                                                                 
     2     -5.4423304      7  1.100                                                                 
  local pseudopotential read in
  partial core-charges read in
  partial kinetic energy density read in
  atomic valenz-charges read in
  non local Contribution for L=           0  read in
    real space projection operators read in
  non local Contribution for L=           0  read in
    real space projection operators read in
  non local Contribution for L=           1  read in
    real space projection operators read in
  non local Contribution for L=           1  read in
    real space projection operators read in
    PAW grid and wavefunctions read in

   number of l-projection  operators is LMAX  =           4
   number of lm-projection operators is LMMAX =           8

 POTCAR:    PAW_PBE H_h 06Feb2004                 
   VRHFIN =H: ultrasoft test                                                                        
   LEXCH  = PE                                                                                      
   EATOM  =    12.4884 eV,    0.9179 Ry                                                             
                                                                                                    
   TITEL  = PAW_PBE H_h 06Feb2004                                                                   
   LULTRA =        F    use ultrasoft PP ?                                                          
   IUNSCR =        0    unscreen: 0-lin 1-nonlin 2-no                                               
   RPACOR =    0.000    partial core radius                                                         
   POMASS =    1.000; ZVAL   =    1.000    mass and valenz                                          
   RCORE  =    0.800    outmost cutoff radius                                                       
   RWIGS  =    0.700; RWIGS  =    0.370    wigner-seitz radius (au A)                               
   ENMAX  =  700.000; ENMIN  =  350.000 eV                                                          
   RCLOC  =    0.701    cutoff for local pot                                                        
   LCOR   =        T    correct aug charges                                                         
   LPAW   =        T    paw PP                                                                      
   EAUG   = 1000.000                                                                                
   RMAX   =    0.819    core radius for proj-oper                                                   
   RAUG   =    1.000    factor for augmentation sphere                                              
   RDEP   =    0.817    radius for radial grids                                                     
   RDEPT  =    0.817    core radius for aug-charge                                                  
                                                                                                    
   Atomic configuration                                                                             
    2 entries                                                                                       
     n  l   j            E        occ.                                                              
     1  0  0.50        -6.4927   1.0000                                                             
     2  1  0.50        -3.4015   0.0000                                                             
   Description                                                                                      
     l       E           TYP  RCUT    TYP  RCUT                                                     
     0     -6.4927493     23  0.800                                                                 
     0      6.8029130     23  0.800                                                                 
     1     -6.8029130     23  0.800                                                                 
  local pseudopotential read in
  atomic valenz-charges read in
  non local Contribution for L=           0  read in
    real space projection operators read in
  non local Contribution for L=           0  read in
    real space projection operators read in
  non local Contribution for L=           1  read in
    real space projection operators read in
    PAW grid and wavefunctions read in

   number of l-projection  operators is LMAX  =           3
   number of lm-projection operators is LMMAX =           5

 -----------------------------------------------------------------------------
|                                                                             |
|               ----> ADVICE to this user running VASP <----                  |
|                                                                             |
|     You have a (more or less) 'large supercell' and for larger cells it     |
|     might be more efficient to use real-space projection operators.         |
|     Therefore, try LREAL= Auto in the INCAR file.                           |
|     Mind: For very accurate calculation, you might also keep the            |
|     reciprocal projection scheme (i.e. LREAL=.FALSE.).                      |
|                                                                             |
 -----------------------------------------------------------------------------

 -----------------------------------------------------------------------------
|                                                                             |
|               ----> ADVICE to this user running VASP <----                  |
|                                                                             |
|     You enforced a specific xc type in the INCAR file but a different       |
|     type was found in the POTCAR file.                                      |
|     I HOPE YOU KNOW WHAT YOU ARE DOING!                                     |
|                                                                             |
 -----------------------------------------------------------------------------

  PAW_PBE N_h 06Feb2004                 :
 energy of atom  1       EATOM= -264.5486
 kinetic energy error for atom=    0.0081 (will be added to EATOM!!)
  PAW_PBE C_h 06Feb2004                 :
 energy of atom  2       EATOM= -147.1560
 kinetic energy error for atom=    0.0031 (will be added to EATOM!!)
  PAW_PBE H_h 06Feb2004                 :
 energy of atom  3       EATOM=  -12.4884
 kinetic energy error for atom=    0.0006 (will be added to EATOM!!)


 POSCAR:  N  C  H
  positions in cartesian coordinates
  No initial velocities read in
 exchange correlation table for  LEXCH =       41
   RHO(1)=    0.500       N(1)  =     2000
   RHO(2)=  100.500       N(2)  =     4000

 VTST: version 4.1, (05/19/21)

 CHAIN: initializing optimizer
 
 OPT: Using VASP Dynamics algorithm
 CHAIN: Read ICHAIN            0

 POSCAR:  N  C  H
  positions in cartesian coordinates
  No initial velocities read in



--------------------------------------------------------------------------------------------------------


 ion  position               nearest neighbor table
   1  0.144  0.166  0.108-  33 1.03  25 1.03  17 1.31
   2  0.856  0.834  0.892-  34 1.03  26 1.03  18 1.31
   3  0.356  0.834  0.608-  35 1.03  27 1.03  19 1.31
   4  0.644  0.166  0.392-  36 1.03  28 1.03  20 1.31
   5  0.856  0.666  0.392-  37 1.03  29 1.03  21 1.31
   6  0.144  0.334  0.608-  38 1.03  30 1.03  22 1.31
   7  0.644  0.334  0.892-  39 1.03  31 1.03  23 1.31
   8  0.356  0.666  0.108-  40 1.03  32 1.03  24 1.31
   9  0.146  0.997  0.350-  17 1.17
  10  0.854  0.003  0.650-  18 1.17
  11  0.354  0.003  0.850-  19 1.17
  12  0.646  0.997  0.150-  20 1.17
  13  0.854  0.497  0.150-  21 1.17
  14  0.146  0.503  0.850-  22 1.17
  15  0.646  0.503  0.650-  23 1.17
  16  0.354  0.497  0.350-  24 1.17
  17  0.145  0.074  0.235-   9 1.17   1 1.31
  18  0.855  0.926  0.765-  10 1.17   2 1.31
  19  0.355  0.926  0.735-  11 1.17   3 1.31
  20  0.645  0.074  0.265-  12 1.17   4 1.31
  21  0.855  0.574  0.265-  13 1.17   5 1.31
  22  0.145  0.426  0.735-  14 1.17   6 1.31
  23  0.645  0.426  0.765-  15 1.17   7 1.31
  24  0.355  0.574  0.235-  16 1.17   8 1.31
  25  0.210  0.101  0.019-   1 1.03
  26  0.790  0.899  0.981-   2 1.03
  27  0.290  0.899  0.519-   3 1.03
  28  0.710  0.101  0.481-   4 1.03
  29  0.790  0.601  0.481-   5 1.03
  30  0.210  0.399  0.519-   6 1.03
  31  0.710  0.399  0.981-   7 1.03
  32  0.290  0.601  0.019-   8 1.03
  33  0.046  0.282  0.095-   1 1.03
  34  0.954  0.718  0.905-   2 1.03
  35  0.454  0.718  0.594-   3 1.03
  36  0.546  0.282  0.405-   4 1.03
  37  0.954  0.782  0.406-   5 1.03
  38  0.046  0.218  0.594-   6 1.03
  39  0.546  0.218  0.905-   7 1.03
  40  0.454  0.782  0.095-   8 1.03

  LATTYP: Found a simple orthorhombic cell.
 ALAT       =     6.6280000000
 B/A-ratio  =     1.0343995172
 C/A-ratio  =     1.3800543150
  
  Lattice vectors:
  
 A1 = (   0.0000000000,  -6.6280000000,   0.0000000000)
 A2 = (   6.8560000000,   0.0000000000,   0.0000000000)
 A3 = (   0.0000000000,   0.0000000000,   9.1470000000)


Analysis of symmetry for initial positions (statically):
=====================================================================
 Subroutine PRICEL returns:
 Original cell was already a primitive cell.
 

 Routine SETGRP: Setting up the symmetry group for a 
 simple orthorhombic supercell.


 Subroutine GETGRP returns: Found  2 space group operations
 (whereof  1 operations were pure point group operations)
 out of a pool of  8 trial point group operations.


The static configuration has the point symmetry C_1 .
 The point group associated with its full space group is S_2 .


Analysis of symmetry for dynamics (positions and initial velocities):
=====================================================================
 Subroutine PRICEL returns:
 Original cell was already a primitive cell.
 

 Routine SETGRP: Setting up the symmetry group for a 
 simple orthorhombic supercell.


 Subroutine GETGRP returns: Found  2 space group operations
 (whereof  1 operations were pure point group operations)
 out of a pool of  8 trial point group operations.


The dynamic configuration has the point symmetry C_1 .
 The point group associated with its full space group is S_2 .


 Subroutine INISYM returns: Found  2 space group operations
 (whereof  1 operations are pure point group operations),
 and found     1 'primitive' translations


----------------------------------------------------------------------------------------

                                     Primitive cell                                     

  volume of cell :     415.6540

  direct lattice vectors                    reciprocal lattice vectors
     6.856000000  0.000000000  0.000000000     0.145857643  0.000000000  0.000000000
     0.000000000  6.628000000  0.000000000     0.000000000  0.150875075  0.000000000
     0.000000000  0.000000000  9.147000000     0.000000000  0.000000000  0.109325462

  length of vectors
     6.856000000  6.628000000  9.147000000     0.145857643  0.150875075  0.109325462

  position of ions in fractional coordinates (direct lattice)
     0.143930733  0.166145508  0.108317168
     0.856069582  0.833859835  0.891682563
     0.356072303  0.833861260  0.608317245
     0.643928580  0.166144304  0.391683022
     0.856072073  0.666146724  0.391683865
     0.143928031  0.333857930  0.608316301
     0.643928632  0.333857963  0.891682734
     0.356069295  0.666146835  0.108318911
     0.146468505  0.997190838  0.350258895
     0.853531025  0.002814810  0.649740955
     0.353532148  0.002805528  0.850254528
     0.646471688  0.997194472  0.149747710
     0.853534634  0.497189310  0.149747627
     0.146464762  0.502815926  0.850252307
     0.646467064  0.502805666  0.649737442
     0.353536455  0.497192848  0.350264085
     0.144521698  0.074337867  0.234776897
     0.855478271  0.925667762  0.765223147
     0.355478444  0.925664261  0.734779199
     0.644523667  0.074338457  0.265222176
     0.855477358  0.574336336  0.265217807
     0.144522328  0.425668646  0.734782160
     0.644517261  0.425667228  0.765217701
     0.355481008  0.574336118  0.234784595
     0.210262133  0.101169491  0.018649582
     0.789737434  0.898834450  0.981350445
     0.289744085  0.898832635  0.518655410
     0.710255280  0.101174648  0.481346209
     0.789743234  0.601175397  0.481350742
     0.210256233  0.398829556  0.518649257
     0.710259024  0.398836817  0.981350549
     0.289739792  0.601168672  0.018649451
     0.046049261  0.282408777  0.094501239
     0.953950919  0.717596302  0.905498169
     0.453943273  0.717602929  0.594498936
     0.546055938  0.282401728  0.405499684
     0.953950324  0.782407493  0.405501363
     0.046049081  0.217597828  0.594498680
     0.546043803  0.217592277  0.905497175
     0.453956166  0.782411587  0.094503019

  ion indices of the primitive-cell ions
   primitive index   ion index
                 1           1
                 2           2
                 3           3
                 4           4
                 5           5
                 6           6
                 7           7
                 8           8
                 9           9
                10          10
                11          11
                12          12
                13          13
                14          14
                15          15
                16          16
                17          17
                18          18
                19          19
                20          20
                21          21
                22          22
                23          23
                24          24
                25          25
                26          26
                27          27
                28          28
                29          29
                30          30
                31          31
                32          32
                33          33
                34          34
                35          35
                36          36
                37          37
                38          38
                39          39
                40          40

----------------------------------------------------------------------------------------



 KPOINTS: auto                                    

Automatic generation of k-mesh.
 Grid dimensions read from file:
 generate k-points for:    4    4    3

 Generating k-lattice:

  Cartesian coordinates                     Fractional coordinates (reciprocal lattice)
     0.036464411  0.000000000  0.000000000     0.250000000  0.000000000  0.000000000
     0.000000000  0.037718769  0.000000000     0.000000000  0.250000000  0.000000000
     0.000000000  0.000000000  0.036441821     0.000000000  0.000000000  0.333333333

  Length of vectors
     0.036464411  0.037718769  0.036441821

  Shift w.r.t. Gamma in fractional coordinates (k-lattice)
     0.000000000  0.000000000  0.000000000

 
 Subroutine IBZKPT returns following result:
 ===========================================
 
 Found     26 irreducible k-points:
 
 Following reciprocal coordinates:
            Coordinates               Weight
  0.000000  0.000000  0.000000      1.000000
  0.250000  0.000000  0.000000      2.000000
  0.500000  0.000000  0.000000      1.000000
  0.000000  0.250000  0.000000      2.000000
  0.250000  0.250000  0.000000      2.000000
 -0.250000  0.250000  0.000000      2.000000
  0.500000  0.250000  0.000000      2.000000
  0.000000  0.500000  0.000000      1.000000
  0.250000  0.500000  0.000000      2.000000
  0.500000  0.500000  0.000000      1.000000
  0.000000  0.000000  0.333333      2.000000
  0.250000  0.000000  0.333333      2.000000
  0.250000  0.000000 -0.333333      2.000000
  0.500000  0.000000  0.333333      2.000000
  0.000000  0.250000  0.333333      2.000000
  0.000000  0.250000 -0.333333      2.000000
  0.250000  0.250000  0.333333      2.000000
 -0.250000  0.250000 -0.333333      2.000000
  0.250000 -0.250000 -0.333333      2.000000
 -0.250000 -0.250000  0.333333      2.000000
  0.500000  0.250000  0.333333      2.000000
  0.500000  0.250000 -0.333333      2.000000
  0.000000  0.500000  0.333333      2.000000
  0.250000  0.500000  0.333333      2.000000
  0.250000  0.500000 -0.333333      2.000000
  0.500000  0.500000  0.333333      2.000000
 
 Following cartesian coordinates:
            Coordinates               Weight
  0.000000  0.000000  0.000000      1.000000
  0.036464  0.000000  0.000000      2.000000
  0.072929  0.000000  0.000000      1.000000
  0.000000  0.037719  0.000000      2.000000
  0.036464  0.037719  0.000000      2.000000
 -0.036464  0.037719  0.000000      2.000000
  0.072929  0.037719  0.000000      2.000000
  0.000000  0.075438  0.000000      1.000000
  0.036464  0.075438  0.000000      2.000000
  0.072929  0.075438  0.000000      1.000000
  0.000000  0.000000  0.036442      2.000000
  0.036464  0.000000  0.036442      2.000000
  0.036464  0.000000 -0.036442      2.000000
  0.072929  0.000000  0.036442      2.000000
  0.000000  0.037719  0.036442      2.000000
  0.000000  0.037719 -0.036442      2.000000
  0.036464  0.037719  0.036442      2.000000
 -0.036464  0.037719 -0.036442      2.000000
  0.036464 -0.037719 -0.036442      2.000000
 -0.036464 -0.037719  0.036442      2.000000
  0.072929  0.037719  0.036442      2.000000
  0.072929  0.037719 -0.036442      2.000000
  0.000000  0.075438  0.036442      2.000000
  0.036464  0.075438  0.036442      2.000000
  0.036464  0.075438 -0.036442      2.000000
  0.072929  0.075438  0.036442      2.000000
 


--------------------------------------------------------------------------------------------------------




 Dimension of arrays:
   k-points           NKPTS =     26   k-points in BZ     NKDIM =     26   number of bands    NBANDS=     88
   number of dos      NEDOS =    301   number of ions     NIONS =     40
   non local maximal  LDIM  =      4   non local SUM 2l+1 LMDIM =      8
   total plane-waves  NPLWV = 483840
   max r-space proj   IRMAX =      1   max aug-charges    IRDMAX=   8466
   dimension x,y,z NGX =    72 NGY =   70 NGZ =   96
   dimension x,y,z NGXF=   144 NGYF=  140 NGZF=  192
   support grid    NGXF=   144 NGYF=  140 NGZF=  192
   ions per type =              16   8  16
   NGX,Y,Z   is equivalent  to a cutoff of  17.46, 17.56, 17.45 a.u.
   NGXF,Y,Z  is equivalent  to a cutoff of  34.92, 35.12, 34.90 a.u.

 SYSTEM =  unknown system                          
 POSCAR =   N  C  H                                

 Startparameter for this run:
   NWRITE =      2    write-flag & timer
   PREC   = accura    normal or accurate (medium, high low for compatibility)
   ISTART =      0    job   : 0-new  1-cont  2-samecut
   ICHARG =      2    charge: 1-file 2-atom 10-const
   ISPIN  =      1    spin polarized calculation?
   LNONCOLLINEAR =      F non collinear calculations
   LSORBIT =      F    spin-orbit coupling
   INIWAV =      1    electr: 0-lowe 1-rand  2-diag
   LASPH  =      T    aspherical Exc in radial PAW
 Electronic Relaxation 1
   ENCUT  = 1000.0 eV  73.50 Ry    8.57 a.u.  17.68 17.09 23.58*2*pi/ulx,y,z
   ENINI  = 1000.0     initial cutoff
   ENAUG  = 1000.0 eV  augmentation charge cutoff
   NELM   =     60;   NELMIN=  2; NELMDL= -5     # of ELM steps 
   EDIFF  = 0.1E-06   stopping-criterion for ELM
   LREAL  =      F    real-space projection
   NLSPLINE    = F    spline interpolate recip. space projectors
   LCOMPAT=      F    compatible to vasp.4.4
   GGA_COMPAT  = T    GGA compatible to vasp.4.4-vasp.4.6
   LMAXPAW     = -100 max onsite density
   LMAXMIX     =    2 max onsite mixed and CHGCAR
   VOSKOWN=      0    Vosko Wilk Nusair interpolation
   ROPT   =    0.00000   0.00000   0.00000
 Ionic relaxation
   EDIFFG = 0.1E-05   stopping-criterion for IOM
   NSW    =      0    number of steps for IOM
   NBLOCK =      1;   KBLOCK =      1    inner block; outer block 
   IBRION =     -1    ionic relax: 0-MD 1-quasi-New 2-CG
   NFREE  =      0    steps in history (QN), initial steepest desc. (CG)
   ISIF   =      0    stress and relaxation
   IWAVPR =     10    prediction:  0-non 1-charg 2-wave 3-comb
   ISYM   =      2    0-nonsym 1-usesym 2-fastsym
   LCORR  =      T    Harris-Foulkes like correction to forces

   POTIM  = 0.5000    time-step for ionic-motion
   TEIN   =    0.0    initial temperature
   TEBEG  =    0.0;   TEEND  =   0.0 temperature during run
   SMASS  =  -3.00    Nose mass-parameter (am)
   estimated Nose-frequenzy (Omega)   =  0.10E-29 period in steps = 0.13E+47 mass=  -0.107E-26a.u.
   SCALEE = 1.0000    scale energy and forces
   NPACO  =    256;   APACO  = 10.0  distance and # of slots for P.C.
   PSTRESS=    0.0 pullay stress

  Mass of Ions in am
   POMASS =  14.00 12.01  1.00
  Ionic Valenz
   ZVAL   =   5.00  4.00  1.00
  Atomic Wigner-Seitz radii
   RWIGS  =  -1.00 -1.00 -1.00
  virtual crystal weights 
   VCA    =   1.00  1.00  1.00
   NELECT =     128.0000    total number of electrons
   NUPDOWN=      -1.0000    fix difference up-down

 DOS related values:
   EMIN   =  10.00;   EMAX   =-10.00  energy-range for DOS
   EFERMI =   0.00;   METHOD = LEGACY      
   ISMEAR =     0;   SIGMA  =   0.01  broadening in eV -4-tet -1-fermi 0-gaus

 Electronic relaxation 2 (details)
   IALGO  =     58    algorithm
   LDIAG  =      T    sub-space diagonalisation (order eigenvalues)
   LSUBROT=      F    optimize rotation matrix (better conditioning)
   TURBO    =      0    0=normal 1=particle mesh
   IRESTART =      0    0=no restart 2=restart with 2 vectors
   NREBOOT  =      0    no. of reboots
   NMIN     =      0    reboot dimension
   EREF     =   0.00    reference energy to select bands
   IMIX   =      4    mixing-type and parameters
     AMIX     =   0.40;   BMIX     =  1.00
     AMIX_MAG =   1.60;   BMIX_MAG =  1.00
     AMIN     =   0.10
     WC   =   100.;   INIMIX=   1;  MIXPRE=   1;  MAXMIX= -45

 Intra band minimization:
   WEIMIN = 0.0000     energy-eigenvalue tresh-hold
   EBREAK =  0.28E-09  absolut break condition
   DEPER  =   0.30     relativ break condition  

   TIME   =   0.40     timestep for ELM

  volume/ion in A,a.u.               =      10.39        70.12
  Fermi-wavevector in a.u.,A,eV,Ry     =   1.105522  2.089134 16.628761  1.222179
  Thomas-Fermi vector in A             =   2.242010

 Write flags
   LWAVE        =      F    write WAVECAR
   LDOWNSAMPLE  =      F    k-point downsampling of WAVECAR
   LCHARG       =      T    write CHGCAR
   LVTOT        =      F    write LOCPOT, total local potential
   LVHAR        =      F    write LOCPOT, Hartree potential only
   LELF         =      F    write electronic localiz. function (ELF)
   LORBIT       =      0    0 simple, 1 ext, 2 COOP (PROOUT), +10 PAW based schemes


 Dipole corrections
   LMONO  =      F    monopole corrections only (constant potential shift)
   LDIPOL =      F    correct potential (dipole corrections)
   IDIPOL =      0    1-x, 2-y, 3-z, 4-all directions 
   EPSILON=  1.0000000 bulk dielectric constant

 Exchange correlation treatment:
   GGA     =    OR    GGA type
   LEXCH   =    41    internal setting for exchange type
   LIBXC   =     F    Libxc                    
   VOSKOWN =     0    Vosko Wilk Nusair interpolation
   LHFCALC =     F    Hartree Fock is set to
   LHFONE  =     F    Hartree Fock one center treatment
   AEXX    =    0.0000 exact exchange contribution

 vdW DFT:
   LUSE_VDW   =     T    switch on vdW DFT
   IVDW_NL    =     1    kernel type
   LSPIN_VDW  =     F    use spin-polarized vdW DFT
   Zab_VDW    =-.8491    correlation parameter
   PARAM1     =0.1234
   PARAM2     =1.0000
   PARAM3     =0.0000
   -- rVV10 --
   BPARAM     = 6.3000
   CPARAM     = 0.0093

 Linear response parameters
   LEPSILON=     F    determine dielectric tensor
   LRPA    =     F    only Hartree local field effects (RPA)
   LNABLA  =     F    use nabla operator in PAW spheres
   LVEL    =     F    velocity operator in full k-point grid
   CSHIFT  =0.1000    complex shift for real part using Kramers Kronig
   OMEGAMAX=  -1.0    maximum frequency
   DEG_THRESHOLD= 0.2000000E-02 threshold for treating states as degnerate
   RTIME   =   -0.100 relaxation time in fs
  (WPLASMAI=    0.000 imaginary part of plasma frequency in eV, 0.658/RTIME)
   DFIELD  = 0.0000000 0.0000000 0.0000000 field for delta impulse in time

  Optional k-point grid parameters
   LKPOINTS_OPT  =     F    use optional k-point grid
   KPOINTS_OPT_MODE=     1    mode for optional k-point grid

 Orbital magnetization related:
   ORBITALMAG=     F  switch on orbital magnetization
   LCHIMAG   =     F  perturbation theory with respect to B field
   DQ        =  0.001000  dq finite difference perturbation B field
   LLRAUG    =     F  two centre corrections for induced B field
   LBONE     =     F  B-component reconstruction in AE one-centre
   LVGVCALC  =     T  calculate vGv susceptibility
   LVGVAPPL  =     F  apply vGv susceptibility instead of pGv for G=0

 Random number generation:
   RANDOM_GENERATOR = DEFAULT
   PCG_SEED         = not used


--------------------------------------------------------------------------------------------------------


 Static calculation
 charge density and potential will be updated during run
 non-spin polarized calculation
 Conjugate gradient for all bands (Freysoldt, et al. PRB 79, 241103 (2009))
 preconditioned conjugated gradient                                        
 perform sub-space diagonalisation
    before iterative eigenvector-optimisation
 modified Broyden-mixing scheme, WC =      100.0
 initial mixing is a Kerker type mixing with AMIX =  0.4000 and BMIX =      1.0000
 Hartree-type preconditioning will be used
 using additional bands           24
 reciprocal scheme for non local part
 use partial core corrections
 no Harris-corrections to forces 
 use gradient corrections 
 use of overlap-Matrix (Vanderbilt PP)
 Gauss-broadening in eV      SIGMA  =   0.01


--------------------------------------------------------------------------------------------------------


  energy-cutoff  :     1000.00
  volume of cell :      415.65
      direct lattice vectors                 reciprocal lattice vectors
     6.856000000  0.000000000  0.000000000     0.145857643  0.000000000  0.000000000
     0.000000000  6.628000000  0.000000000     0.000000000  0.150875075  0.000000000
     0.000000000  0.000000000  9.147000000     0.000000000  0.000000000  0.109325462

  length of vectors
     6.856000000  6.628000000  9.147000000     0.145857643  0.150875075  0.109325462



 k-points in units of 2pi/SCALE and weight: auto                                    
   0.00000000  0.00000000  0.00000000       0.021
   0.03646441  0.00000000  0.00000000       0.042
   0.07292882  0.00000000  0.00000000       0.021
   0.00000000  0.03771877  0.00000000       0.042
   0.03646441  0.03771877  0.00000000       0.042
  -0.03646441  0.03771877  0.00000000       0.042
   0.07292882  0.03771877  0.00000000       0.042
   0.00000000  0.07543754  0.00000000       0.021
   0.03646441  0.07543754  0.00000000       0.042
   0.07292882  0.07543754  0.00000000       0.021
   0.00000000  0.00000000  0.03644182       0.042
   0.03646441  0.00000000  0.03644182       0.042
   0.03646441  0.00000000 -0.03644182       0.042
   0.07292882  0.00000000  0.03644182       0.042
   0.00000000  0.03771877  0.03644182       0.042
   0.00000000  0.03771877 -0.03644182       0.042
   0.03646441  0.03771877  0.03644182       0.042
  -0.03646441  0.03771877 -0.03644182       0.042
   0.03646441 -0.03771877 -0.03644182       0.042
  -0.03646441 -0.03771877  0.03644182       0.042
   0.07292882  0.03771877  0.03644182       0.042
   0.07292882  0.03771877 -0.03644182       0.042
   0.00000000  0.07543754  0.03644182       0.042
   0.03646441  0.07543754  0.03644182       0.042
   0.03646441  0.07543754 -0.03644182       0.042
   0.07292882  0.07543754  0.03644182       0.042

 k-points in reciprocal lattice and weights: auto                                    
   0.00000000  0.00000000  0.00000000       0.021
   0.25000000  0.00000000  0.00000000       0.042
   0.50000000  0.00000000  0.00000000       0.021
   0.00000000  0.25000000  0.00000000       0.042
   0.25000000  0.25000000  0.00000000       0.042
  -0.25000000  0.25000000  0.00000000       0.042
   0.50000000  0.25000000  0.00000000       0.042
   0.00000000  0.50000000  0.00000000       0.021
   0.25000000  0.50000000  0.00000000       0.042
   0.50000000  0.50000000  0.00000000       0.021
   0.00000000  0.00000000  0.33333333       0.042
   0.25000000  0.00000000  0.33333333       0.042
   0.25000000  0.00000000 -0.33333333       0.042
   0.50000000  0.00000000  0.33333333       0.042
   0.00000000  0.25000000  0.33333333       0.042
   0.00000000  0.25000000 -0.33333333       0.042
   0.25000000  0.25000000  0.33333333       0.042
  -0.25000000  0.25000000 -0.33333333       0.042
   0.25000000 -0.25000000 -0.33333333       0.042
  -0.25000000 -0.25000000  0.33333333       0.042
   0.50000000  0.25000000  0.33333333       0.042
   0.50000000  0.25000000 -0.33333333       0.042
   0.00000000  0.50000000  0.33333333       0.042
   0.25000000  0.50000000  0.33333333       0.042
   0.25000000  0.50000000 -0.33333333       0.042
   0.50000000  0.50000000  0.33333333       0.042

 position of ions in fractional coordinates (direct lattice) 
   0.14393073  0.16614551  0.10831717
   0.85606958  0.83385984  0.89168256
   0.35607230  0.83386126  0.60831724
   0.64392858  0.16614430  0.39168302
   0.85607207  0.66614672  0.39168387
   0.14392803  0.33385793  0.60831630
   0.64392863  0.33385796  0.89168273
   0.35606930  0.66614684  0.10831891
   0.14646851  0.99719084  0.35025889
   0.85353103  0.00281481  0.64974096
   0.35353215  0.00280553  0.85025453
   0.64647169  0.99719447  0.14974771
   0.85353463  0.49718931  0.14974763
   0.14646476  0.50281593  0.85025231
   0.64646706  0.50280567  0.64973744
   0.35353645  0.49719285  0.35026408
   0.14452170  0.07433787  0.23477690
   0.85547827  0.92566776  0.76522315
   0.35547844  0.92566426  0.73477920
   0.64452367  0.07433846  0.26522218
   0.85547736  0.57433634  0.26521781
   0.14452233  0.42566865  0.73478216
   0.64451726  0.42566723  0.76521770
   0.35548101  0.57433612  0.23478460
   0.21026213  0.10116949  0.01864958
   0.78973743  0.89883445  0.98135044
   0.28974409  0.89883264  0.51865541
   0.71025528  0.10117465  0.48134621
   0.78974323  0.60117540  0.48135074
   0.21025623  0.39882956  0.51864926
   0.71025902  0.39883682  0.98135055
   0.28973979  0.60116867  0.01864945
   0.04604926  0.28240878  0.09450124
   0.95395092  0.71759630  0.90549817
   0.45394327  0.71760293  0.59449894
   0.54605594  0.28240173  0.40549968
   0.95395032  0.78240749  0.40550136
   0.04604908  0.21759783  0.59449868
   0.54604380  0.21759228  0.90549718
   0.45395617  0.78241159  0.09450302

 position of ions in cartesian coordinates  (Angst):
   0.98678911  1.10121243  0.99077714
   5.86921305  5.52682299  8.15622040
   2.44123171  5.52683243  5.56427784
   4.41477435  1.10120445  3.58272460
   5.86923013  4.41522049  3.58273232
   0.98677058  2.21281036  5.56426921
   4.41477470  2.21281058  8.15622196
   2.44121109  4.41522122  0.99079308
   1.00418807  6.60938087  3.20381811
   5.85180871  0.01865656  5.94318052
   2.42381641  0.01859504  7.77727817
   4.43220989  6.60940496  1.36974230
   5.85183345  3.29537075  1.36974155
   1.00416241  3.33266396  7.77725785
   4.43217819  3.33259595  5.94314838
   2.42384593  3.29539420  3.20386558
   0.99084076  0.49271138  2.14750428
   5.86515902  6.13532592  6.99949613
   2.43716021  6.13530272  6.72102533
   4.41885426  0.49271529  2.42598724
   5.86515277  3.80670123  2.42594728
   0.99084508  2.82133178  6.72105241
   4.41881034  2.82132239  6.99944631
   2.43717779  3.80669979  2.14757469
   1.44155719  0.67055139  0.17058773
   5.41443985  5.95747474  8.97641252
   1.98648545  5.95746271  4.74414103
   4.86951020  0.67058557  4.40287378
   5.41447961  3.98459053  4.40291523
   1.44151673  2.64344230  4.74408475
   4.86953587  2.64349042  8.97641347
   1.98645601  3.98454595  0.17058653
   0.31571373  1.87180537  0.86440283
   6.54028750  4.75622829  8.28259175
   3.11223508  4.75627221  5.43788177
   3.74375951  1.87175865  3.70910561
   6.54028342  5.18579686  3.70912097
   0.31571250  1.44223840  5.43787943
   3.74367631  1.44220161  8.28258266
   3.11232348  5.18582400  0.86441911



--------------------------------------------------------------------------------------------------------


 k-point   1 :   0.0000 0.0000 0.0000  plane waves:   29863
 k-point   2 :   0.2500 0.0000 0.0000  plane waves:   29873
 k-point   3 :   0.5000 0.0000 0.0000  plane waves:   29848
 k-point   4 :   0.0000 0.2500 0.0000  plane waves:   29860
 k-point   5 :   0.2500 0.2500 0.0000  plane waves:   29833
 k-point   6 :  -0.2500 0.2500 0.0000  plane waves:   29833
 k-point   7 :   0.5000 0.2500 0.0000  plane waves:   29838
 k-point   8 :   0.0000 0.5000 0.0000  plane waves:   29882
 k-point   9 :   0.2500 0.5000 0.0000  plane waves:   29838
 k-point  10 :   0.5000 0.5000 0.0000  plane waves:   29820
 k-point  11 :   0.0000 0.0000 0.3333  plane waves:   29861
 k-point  12 :   0.2500 0.0000 0.3333  plane waves:   29838
 k-point  13 :   0.2500 0.0000-0.3333  plane waves:   29838
 k-point  14 :   0.5000 0.0000 0.3333  plane waves:   29810
 k-point  15 :   0.0000 0.2500 0.3333  plane waves:   29825
 k-point  16 :   0.0000 0.2500-0.3333  plane waves:   29825
 k-point  17 :   0.2500 0.2500 0.3333  plane waves:   29837
 k-point  18 :  -0.2500 0.2500-0.3333  plane waves:   29837
 k-point  19 :   0.2500-0.2500-0.3333  plane waves:   29837
 k-point  20 :  -0.2500-0.2500 0.3333  plane waves:   29837
 k-point  21 :   0.5000 0.2500 0.3333  plane waves:   29848
 k-point  22 :   0.5000 0.2500-0.3333  plane waves:   29848
 k-point  23 :   0.0000 0.5000 0.3333  plane waves:   29840
 k-point  24 :   0.2500 0.5000 0.3333  plane waves:   29846
 k-point  25 :   0.2500 0.5000-0.3333  plane waves:   29846
 k-point  26 :   0.5000 0.5000 0.3333  plane waves:   29832

 maximum and minimum number of plane-waves per node :       495      444

 maximum number of plane-waves:     29882
 maximum index in each direction: 
   IXMAX=   17   IYMAX=   17   IZMAX=   23
   IXMIN=  -18   IYMIN=  -17   IZMIN=  -23


 parallel 3D FFT for wavefunctions:
    minimum data exchange during FFTs selected (reduces bandwidth)
 parallel 3D FFT for charge:
    minimum data exchange during FFTs selected (reduces bandwidth)


 total amount of memory used by VASP MPI-rank0    49410. kBytes
=======================================================================

   base      :      30000. kBytes
   nonl-proj :       2658. kBytes
   fftplans  :       1300. kBytes
   grid      :       2273. kBytes
   one-center:          3. kBytes
   wavefun   :      13176. kBytes

     INWAV:  cpu time      0.0000: real time      0.0000
 Broyden mixing: mesh for mixing (old mesh)
   NGX = 35   NGY = 35   NGZ = 47
  (NGX  =144   NGY  =140   NGZ  =192)
  gives a total of  57575 points

 initial charge density was supplied:
 charge density of overlapping atoms calculated
 number of electron     128.0000000 magnetization 
 keeping initial charge density in first step


--------------------------------------------------------------------------------------------------------


 Maximum index for augmentation-charges          123 (set IRDMAX)


--------------------------------------------------------------------------------------------------------


 First call to EWALD:  gamma=   0.238
 Maximum number of real-space cells 3x 3x 2
 Maximum number of reciprocal cells 3x 2x 3

    FEWALD:  cpu time      0.0029: real time      0.0031


--------------------------------------- Ionic step        1  -------------------------------------------




--------------------------------------- Iteration      1(   1)  ---------------------------------------


vdW kernel read from vdw_kernel.bindat
  0.0000  0.2424  0.5071  0.7962  1.1119  1.4567  1.8333  2.2446  2.6937  3.1842
  3.7199  4.3049  4.9438  5.6415  6.4036  7.2358  8.1446  9.1372 10.2212 11.4050
 12.6979 14.1099 15.6519 17.3360 19.1751 21.1837 23.3773 25.7729 28.3892 31.2465
 34.3669 37.7748 41.4965 45.5611 50.0000

    POTLOK:  cpu time      1.3993: real time      1.4000
    SETDIJ:  cpu time      0.0735: real time      0.0739
    TRIAL :  cpu time      2.8252: real time      2.8286
    CORREC:  cpu time      0.0041: real time      0.0041
    --------------------------------------------
      LOOP:  cpu time      4.3130: real time      4.3177

 eigenvalue-minimisations  :  4576
 total energy-change (2. order) : 0.1158804E+04  (-0.9471220E+04)
 number of electron     128.0000000 magnetization 
 augmentation part      128.0000000 magnetization 

 Free energy of the ion-electron system (eV)
  ---------------------------------------------------
  alpha Z        PSCENC =       118.91601032
  Ewald energy   TEWEN  =     -3118.12717471
  -Hartree energ DENC   =     -1912.96877498
  -exchange      EXHF   =         0.00000000
  -V(xc)+E(xc)   XCENC  =       347.46601941
  PAW double counting   =      4260.56016127    -4189.81907117
  entropy T*S    EENTRO =        -0.00085795
  eigenvalues    EBANDS =       -11.71912506
  atomic energy  EATOM  =      5664.49702926
  ---------------------------------------------------
  free energy    TOTEN  =      1158.80421638 eV

  energy without entropy =     1158.80507433  energy(sigma->0) =     1158.80464536


--------------------------------------------------------------------------------------------------------




--------------------------------------- Iteration      1(   2)  ---------------------------------------


    TRIAL :  cpu time      3.3700: real time      3.3714
    CORREC:  cpu time      0.0004: real time      0.0004
    --------------------------------------------
      LOOP:  cpu time      3.3845: real time      3.4024

 eigenvalue-minimisations  :  6032
 total energy-change (2. order) :-0.1212925E+04  (-0.1158823E+04)
 number of electron     128.0000000 magnetization 
 augmentation part      128.0000000 magnetization 

 Free energy of the ion-electron system (eV)
  ---------------------------------------------------
  alpha Z        PSCENC =       118.91601032
  Ewald energy   TEWEN  =     -3118.12717471
  -Hartree energ DENC   =     -1912.96877498
  -exchange      EXHF   =         0.00000000
  -V(xc)+E(xc)   XCENC  =       347.46601941
  PAW double counting   =      4260.56016127    -4189.81907117
  entropy T*S    EENTRO =        -0.00000000
  eigenvalues    EBANDS =     -1224.64535029
  atomic energy  EATOM  =      5664.49702926
  ---------------------------------------------------
  free energy    TOTEN  =       -54.12115090 eV

  energy without entropy =      -54.12115090  energy(sigma->0) =      -54.12115090


--------------------------------------------------------------------------------------------------------




--------------------------------------- Iteration      1(   3)  ---------------------------------------


    TRIAL :  cpu time      3.1702: real time      3.1717
    CORREC:  cpu time      0.0006: real time      0.0006
    --------------------------------------------
      LOOP:  cpu time      3.1837: real time      3.2021

 eigenvalue-minimisations  :  5568
 total energy-change (2. order) :-0.1888905E+03  (-0.1867225E+03)
 number of electron     128.0000000 magnetization 
 augmentation part      128.0000000 magnetization 

 Free energy of the ion-electron system (eV)
  ---------------------------------------------------
  alpha Z        PSCENC =       118.91601032
  Ewald energy   TEWEN  =     -3118.12717471
  -Hartree energ DENC   =     -1912.96877498
  -exchange      EXHF   =         0.00000000
  -V(xc)+E(xc)   XCENC  =       347.46601941
  PAW double counting   =      4260.56016127    -4189.81907117
  entropy T*S    EENTRO =        -0.00000000
  eigenvalues    EBANDS =     -1413.53580206
  atomic energy  EATOM  =      5664.49702926
  ---------------------------------------------------
  free energy    TOTEN  =      -243.01160267 eV

  energy without entropy =     -243.01160267  energy(sigma->0) =     -243.01160267


--------------------------------------------------------------------------------------------------------




--------------------------------------- Iteration      1(   4)  ---------------------------------------


    TRIAL :  cpu time      3.1836: real time      3.1852
    CORREC:  cpu time      0.0006: real time      0.0006
    --------------------------------------------
      LOOP:  cpu time      3.2142: real time      3.2165

 eigenvalue-minimisations  :  5608
 total energy-change (2. order) :-0.7799246E+01  (-0.7719935E+01)
 number of electron     128.0000000 magnetization 
 augmentation part      128.0000000 magnetization 

 Free energy of the ion-electron system (eV)
  ---------------------------------------------------
  alpha Z        PSCENC =       118.91601032
  Ewald energy   TEWEN  =     -3118.12717471
  -Hartree energ DENC   =     -1912.96877498
  -exchange      EXHF   =         0.00000000
  -V(xc)+E(xc)   XCENC  =       347.46601941
  PAW double counting   =      4260.56016127    -4189.81907117
  entropy T*S    EENTRO =        -0.00000000
  eigenvalues    EBANDS =     -1421.33504823
  atomic energy  EATOM  =      5664.49702926
  ---------------------------------------------------
  free energy    TOTEN  =      -250.81084884 eV

  energy without entropy =     -250.81084884  energy(sigma->0) =     -250.81084884


--------------------------------------------------------------------------------------------------------




--------------------------------------- Iteration      1(   5)  ---------------------------------------


    TRIAL :  cpu time      3.2931: real time      3.2945
    CORREC:  cpu time      0.0006: real time      0.0006
    CHARGE:  cpu time      0.2171: real time      0.2183
    --------------------------------------------
      LOOP:  cpu time      3.5255: real time      3.5419

 eigenvalue-minimisations  :  5760
 total energy-change (2. order) :-0.3233986E+00  (-0.3228586E+00)
 number of electron     128.0000000 magnetization 
 augmentation part       -0.2296091 magnetization 

 Free energy of the ion-electron system (eV)
  ---------------------------------------------------
  alpha Z        PSCENC =       118.91601032
  Ewald energy   TEWEN  =     -3118.12717471
  -Hartree energ DENC   =     -1912.96877498
  -exchange      EXHF   =         0.00000000
  -V(xc)+E(xc)   XCENC  =       347.46601941
  PAW double counting   =      4260.56016127    -4189.81907117
  entropy T*S    EENTRO =        -0.00000000
  eigenvalues    EBANDS =     -1421.65844684
  atomic energy  EATOM  =      5664.49702926
  ---------------------------------------------------
  free energy    TOTEN  =      -251.13424745 eV

  energy without entropy =     -251.13424745  energy(sigma->0) =     -251.13424745


--------------------------------------------------------------------------------------------------------




--------------------------------------- Iteration      1(   6)  ---------------------------------------


    POTLOK:  cpu time      0.7523: real time      0.7529
    SETDIJ:  cpu time      0.0664: real time      0.0665
    TRIAL :  cpu time      1.6431: real time      1.6445
    CORREC:  cpu time      1.7282: real time      1.7286
    CHARGE:  cpu time      0.1795: real time      0.1797
    --------------------------------------------
      LOOP:  cpu time      4.3859: real time      4.4013

 eigenvalue-minimisations  :     0
 total energy-change (2. order) : 0.5487781E+02  (-0.2633854E+02)
 number of electron     128.0000000 magnetization 
 augmentation part       -0.3975969 magnetization 

 Free energy of the ion-electron system (eV)
  ---------------------------------------------------
  alpha Z        PSCENC =       118.91601032
  Ewald energy   TEWEN  =     -3118.12717471
  -Hartree energ DENC   =     -2612.33508510
  -exchange      EXHF   =         0.00000000
  -V(xc)+E(xc)   XCENC  =       393.47692971
  PAW double counting   =     38691.92956042   -38628.29833613
  entropy T*S    EENTRO =        -0.00000000
  eigenvalues    EBANDS =      -706.31537111
  atomic energy  EATOM  =      5664.49702926
  ---------------------------------------------------
  free energy    TOTEN  =      -196.25643734 eV

  energy without entropy =     -196.25643734  energy(sigma->0) =     -196.25643734


--------------------------------------------------------------------------------------------------------




--------------------------------------- Iteration      1(   7)  ---------------------------------------


    POTLOK:  cpu time      0.7593: real time      0.7593
    SETDIJ:  cpu time      0.0674: real time      0.0674
    TRIAL :  cpu time      1.5957: real time      1.5964
    CORREC:  cpu time      1.7177: real time      1.7184
    CHARGE:  cpu time      0.1793: real time      0.1794
    --------------------------------------------
      LOOP:  cpu time      4.3482: real time      4.3501

 eigenvalue-minimisations  :     0
 total energy-change (2. order) :-0.2636360E+02  (-0.2392594E+01)
 number of electron     128.0000000 magnetization 
 augmentation part       -0.4839213 magnetization 

 Free energy of the ion-electron system (eV)
  ---------------------------------------------------
  alpha Z        PSCENC =       118.91601032
  Ewald energy   TEWEN  =     -3118.12717471
  -Hartree energ DENC   =     -2272.83961698
  -exchange      EXHF   =         0.00000000
  -V(xc)+E(xc)   XCENC  =       371.43691753
  PAW double counting   =     52850.35438841   -52783.42246765
  entropy T*S    EENTRO =        -0.00000000
  eigenvalues    EBANDS =     -1053.43511958
  atomic energy  EATOM  =      5664.49702926
  ---------------------------------------------------
  free energy    TOTEN  =      -222.62003342 eV

  energy without entropy =     -222.62003342  energy(sigma->0) =     -222.62003342


--------------------------------------------------------------------------------------------------------




--------------------------------------- Iteration      1(   8)  ---------------------------------------


    POTLOK:  cpu time      0.7474: real time      0.7476
    SETDIJ:  cpu time      0.0666: real time      0.0666
    TRIAL :  cpu time      1.5985: real time      1.5988
    CORREC:  cpu time      1.7172: real time      1.7182
    CHARGE:  cpu time      0.1789: real time      0.1789
    --------------------------------------------
      LOOP:  cpu time      4.3227: real time      4.3408

 eigenvalue-minimisations  :     0
 total energy-change (2. order) :-0.2394283E+01  (-0.6887988E+00)
 number of electron     128.0000000 magnetization 
 augmentation part       -0.4690526 magnetization 

 Free energy of the ion-electron system (eV)
  ---------------------------------------------------
  alpha Z        PSCENC =       118.91601032
  Ewald energy   TEWEN  =     -3118.12717471
  -Hartree energ DENC   =     -2264.02995813
  -exchange      EXHF   =         0.00000000
  -V(xc)+E(xc)   XCENC  =       371.17594542
  PAW double counting   =     55916.85899961   -55849.54621998
  entropy T*S    EENTRO =        -0.00000000
  eigenvalues    EBANDS =     -1064.75894776
  atomic energy  EATOM  =      5664.49702926
  ---------------------------------------------------
  free energy    TOTEN  =      -225.01431598 eV

  energy without entropy =     -225.01431598  energy(sigma->0) =     -225.01431598


--------------------------------------------------------------------------------------------------------




--------------------------------------- Iteration      1(   9)  ---------------------------------------


    POTLOK:  cpu time      0.7475: real time      0.7477
    SETDIJ:  cpu time      0.0666: real time      0.0666
    TRIAL :  cpu time      1.6148: real time      1.6154
    CORREC:  cpu time      1.7720: real time      1.7727
    CHARGE:  cpu time      0.1798: real time      0.1798
    --------------------------------------------
      LOOP:  cpu time      4.3927: real time      4.4136

 eigenvalue-minimisations  :     0
 total energy-change (2. order) :-0.6849749E+00  (-0.2000967E+00)
 number of electron     128.0000000 magnetization 
 augmentation part       -0.4525792 magnetization 

 Free energy of the ion-electron system (eV)
  ---------------------------------------------------
  alpha Z        PSCENC =       118.91601032
  Ewald energy   TEWEN  =     -3118.12717471
  -Hartree energ DENC   =     -2258.99648225
  -exchange      EXHF   =         0.00000000
  -V(xc)+E(xc)   XCENC  =       371.03295441
  PAW double counting   =     56057.51035262   -55990.13028900
  entropy T*S    EENTRO =        -0.00000000
  eigenvalues    EBANDS =     -1070.40169155
  atomic energy  EATOM  =      5664.49702926
  ---------------------------------------------------
  free energy    TOTEN  =      -225.69929091 eV

  energy without entropy =     -225.69929091  energy(sigma->0) =     -225.69929091


--------------------------------------------------------------------------------------------------------




--------------------------------------- Iteration      1(  10)  ---------------------------------------


    POTLOK:  cpu time      0.7474: real time      0.7476
    SETDIJ:  cpu time      0.0667: real time      0.0668
    TRIAL :  cpu time      1.6168: real time      1.6172
    CORREC:  cpu time      1.8807: real time      1.8814
    CHARGE:  cpu time      0.1792: real time      0.1792
    --------------------------------------------
      LOOP:  cpu time      4.5054: real time      4.5222

 eigenvalue-minimisations  :     0
 total energy-change (2. order) :-0.1992460E+00  (-0.5184614E-01)
 number of electron     128.0000000 magnetization 
 augmentation part       -0.4489434 magnetization 

 Free energy of the ion-electron system (eV)
  ---------------------------------------------------
  alpha Z        PSCENC =       118.91601032
  Ewald energy   TEWEN  =     -3118.12717471
  -Hartree energ DENC   =     -2256.09127710
  -exchange      EXHF   =         0.00000000
  -V(xc)+E(xc)   XCENC  =       370.80475973
  PAW double counting   =     54836.79123567   -54769.45034881
  entropy T*S    EENTRO =        -0.00000000
  eigenvalues    EBANDS =     -1073.23877130
  atomic energy  EATOM  =      5664.49702926
  ---------------------------------------------------
  free energy    TOTEN  =      -225.89853695 eV

  energy without entropy =     -225.89853695  energy(sigma->0) =     -225.89853695


--------------------------------------------------------------------------------------------------------




--------------------------------------- Iteration      1(  11)  ---------------------------------------


    POTLOK:  cpu time      0.7522: real time      0.7525
    SETDIJ:  cpu time      0.0666: real time      0.0666
    TRIAL :  cpu time      1.5939: real time      1.5945
    CORREC:  cpu time      1.7277: real time      1.7284
    CHARGE:  cpu time      0.1792: real time      0.1793
    --------------------------------------------
      LOOP:  cpu time      4.3353: real time      4.3522

 eigenvalue-minimisations  :     0
 total energy-change (2. order) :-0.5175770E-01  (-0.1205706E-01)
 number of electron     128.0000000 magnetization 
 augmentation part       -0.4491708 magnetization 

 Free energy of the ion-electron system (eV)
  ---------------------------------------------------
  alpha Z        PSCENC =       118.91601032
  Ewald energy   TEWEN  =     -3118.12717471
  -Hartree energ DENC   =     -2255.64412744
  -exchange      EXHF   =         0.00000000
  -V(xc)+E(xc)   XCENC  =       370.73003540
  PAW double counting   =     54194.30826079   -54126.99915381
  entropy T*S    EENTRO =        -0.00000000
  eigenvalues    EBANDS =     -1073.63117445
  atomic energy  EATOM  =      5664.49702926
  ---------------------------------------------------
  free energy    TOTEN  =      -225.95029465 eV

  energy without entropy =     -225.95029465  energy(sigma->0) =     -225.95029465


--------------------------------------------------------------------------------------------------------




--------------------------------------- Iteration      1(  12)  ---------------------------------------


    POTLOK:  cpu time      0.7479: real time      0.7479
    SETDIJ:  cpu time      0.0666: real time      0.0666
    TRIAL :  cpu time      1.5956: real time      1.5963
    CORREC:  cpu time      1.7156: real time      1.7163
    CHARGE:  cpu time      0.1784: real time      0.1784
    --------------------------------------------
      LOOP:  cpu time      4.3341: real time      4.3357

 eigenvalue-minimisations  :     0
 total energy-change (2. order) :-0.1204779E-01  (-0.2876366E-02)
 number of electron     128.0000000 magnetization 
 augmentation part       -0.4501587 magnetization 

 Free energy of the ion-electron system (eV)
  ---------------------------------------------------
  alpha Z        PSCENC =       118.91601032
  Ewald energy   TEWEN  =     -3118.12717471
  -Hartree energ DENC   =     -2254.74554547
  -exchange      EXHF   =         0.00000000
  -V(xc)+E(xc)   XCENC  =       370.66317137
  PAW double counting   =     54184.30309521   -54116.99221698
  entropy T*S    EENTRO =        -0.00000000
  eigenvalues    EBANDS =     -1074.47671143
  atomic energy  EATOM  =      5664.49702926
  ---------------------------------------------------
  free energy    TOTEN  =      -225.96234244 eV

  energy without entropy =     -225.96234244  energy(sigma->0) =     -225.96234244


--------------------------------------------------------------------------------------------------------




--------------------------------------- Iteration      1(  13)  ---------------------------------------


    POTLOK:  cpu time      0.7488: real time      0.7490
    SETDIJ:  cpu time      0.0665: real time      0.0665
    TRIAL :  cpu time      1.6077: real time      1.6079
    CORREC:  cpu time      1.7696: real time      1.7705
    CHARGE:  cpu time      0.1797: real time      0.1797
    --------------------------------------------
      LOOP:  cpu time      4.3882: real time      4.4043

 eigenvalue-minimisations  :     0
 total energy-change (2. order) :-0.2872414E-02  (-0.6318434E-03)
 number of electron     128.0000000 magnetization 
 augmentation part       -0.4505942 magnetization 

 Free energy of the ion-electron system (eV)
  ---------------------------------------------------
  alpha Z        PSCENC =       118.91601032
  Ewald energy   TEWEN  =     -3118.12717471
  -Hartree energ DENC   =     -2254.76651704
  -exchange      EXHF   =         0.00000000
  -V(xc)+E(xc)   XCENC  =       370.66615975
  PAW double counting   =     54244.53871577   -54177.22666594
  entropy T*S    EENTRO =        -0.00000000
  eigenvalues    EBANDS =     -1074.46277226
  atomic energy  EATOM  =      5664.49702926
  ---------------------------------------------------
  free energy    TOTEN  =      -225.96521486 eV

  energy without entropy =     -225.96521486  energy(sigma->0) =     -225.96521486


--------------------------------------------------------------------------------------------------------




--------------------------------------- Iteration      1(  14)  ---------------------------------------


    POTLOK:  cpu time      0.7461: real time      0.7464
    SETDIJ:  cpu time      0.0666: real time      0.0666
    TRIAL :  cpu time      1.5952: real time      1.5957
    CORREC:  cpu time      1.7167: real time      1.7174
    CHARGE:  cpu time      0.1812: real time      0.1812
    --------------------------------------------
      LOOP:  cpu time      4.3176: real time      4.3386

 eigenvalue-minimisations  :     0
 total energy-change (2. order) :-0.6313927E-03  (-0.1575383E-03)
 number of electron     128.0000000 magnetization 
 augmentation part       -0.4506177 magnetization 

 Free energy of the ion-electron system (eV)
  ---------------------------------------------------
  alpha Z        PSCENC =       118.91601032
  Ewald energy   TEWEN  =     -3118.12717471
  -Hartree energ DENC   =     -2254.66844784
  -exchange      EXHF   =         0.00000000
  -V(xc)+E(xc)   XCENC  =       370.65639284
  PAW double counting   =     54250.02648824   -54182.71249623
  entropy T*S    EENTRO =        -0.00000000
  eigenvalues    EBANDS =     -1074.55364813
  atomic energy  EATOM  =      5664.49702926
  ---------------------------------------------------
  free energy    TOTEN  =      -225.96584625 eV

  energy without entropy =     -225.96584625  energy(sigma->0) =     -225.96584625


--------------------------------------------------------------------------------------------------------




--------------------------------------- Iteration      1(  15)  ---------------------------------------


    POTLOK:  cpu time      0.7491: real time      0.7491
    SETDIJ:  cpu time      0.0664: real time      0.0666
    TRIAL :  cpu time      1.5922: real time      1.5925
    CORREC:  cpu time      1.7181: real time      1.7188
    CHARGE:  cpu time      0.1795: real time      0.1795
    --------------------------------------------
      LOOP:  cpu time      4.3350: real time      4.3364

 eigenvalue-minimisations  :     0
 total energy-change (2. order) :-0.1575203E-03  (-0.3976178E-04)
 number of electron     128.0000000 magnetization 
 augmentation part       -0.4505882 magnetization 

 Free energy of the ion-electron system (eV)
  ---------------------------------------------------
  alpha Z        PSCENC =       118.91601032
  Ewald energy   TEWEN  =     -3118.12717471
  -Hartree energ DENC   =     -2254.72521497
  -exchange      EXHF   =         0.00000000
  -V(xc)+E(xc)   XCENC  =       370.66035159
  PAW double counting   =     54230.87131025   -54163.55831881
  entropy T*S    EENTRO =        -0.00000000
  eigenvalues    EBANDS =     -1074.49999668
  atomic energy  EATOM  =      5664.49702926
  ---------------------------------------------------
  free energy    TOTEN  =      -225.96600377 eV

  energy without entropy =     -225.96600377  energy(sigma->0) =     -225.96600377


--------------------------------------------------------------------------------------------------------




--------------------------------------- Iteration      1(  16)  ---------------------------------------


    POTLOK:  cpu time      0.7467: real time      0.7469
    SETDIJ:  cpu time      0.0706: real time      0.0706
    TRIAL :  cpu time      1.6125: real time      1.6132
    CORREC:  cpu time      1.7153: real time      1.7159
    CHARGE:  cpu time      0.1786: real time      0.1786
    --------------------------------------------
      LOOP:  cpu time      4.3381: real time      4.3554

 eigenvalue-minimisations  :     0
 total energy-change (2. order) :-0.3995401E-04  (-0.9904758E-05)
 number of electron     128.0000000 magnetization 
 augmentation part       -0.4505759 magnetization 

 Free energy of the ion-electron system (eV)
  ---------------------------------------------------
  alpha Z        PSCENC =       118.91601032
  Ewald energy   TEWEN  =     -3118.12717471
  -Hartree energ DENC   =     -2254.72931248
  -exchange      EXHF   =         0.00000000
  -V(xc)+E(xc)   XCENC  =       370.65954984
  PAW double counting   =     54221.24908041   -54153.93626749
  entropy T*S    EENTRO =        -0.00000000
  eigenvalues    EBANDS =     -1074.49495887
  atomic energy  EATOM  =      5664.49702926
  ---------------------------------------------------
  free energy    TOTEN  =      -225.96604372 eV

  energy without entropy =     -225.96604372  energy(sigma->0) =     -225.96604372


--------------------------------------------------------------------------------------------------------




--------------------------------------- Iteration      1(  17)  ---------------------------------------


    POTLOK:  cpu time      0.7473: real time      0.7475
    SETDIJ:  cpu time      0.0667: real time      0.0667
    TRIAL :  cpu time      1.6072: real time      1.6077
    CORREC:  cpu time      1.7467: real time      1.7475
    CHARGE:  cpu time      0.1795: real time      0.1795
    --------------------------------------------
      LOOP:  cpu time      4.3613: real time      4.3791

 eigenvalue-minimisations  :     0
 total energy-change (2. order) :-0.9949857E-05  (-0.2787820E-05)
 number of electron     128.0000000 magnetization 
 augmentation part       -0.4505722 magnetization 

 Free energy of the ion-electron system (eV)
  ---------------------------------------------------
  alpha Z        PSCENC =       118.91601032
  Ewald energy   TEWEN  =     -3118.12717471
  -Hartree energ DENC   =     -2254.73816872
  -exchange      EXHF   =         0.00000000
  -V(xc)+E(xc)   XCENC  =       370.65997305
  PAW double counting   =     54223.84703167   -54156.53427593
  entropy T*S    EENTRO =        -0.00000000
  eigenvalues    EBANDS =     -1074.48647862
  atomic energy  EATOM  =      5664.49702926
  ---------------------------------------------------
  free energy    TOTEN  =      -225.96605367 eV

  energy without entropy =     -225.96605367  energy(sigma->0) =     -225.96605367


--------------------------------------------------------------------------------------------------------




--------------------------------------- Iteration      1(  18)  ---------------------------------------


    POTLOK:  cpu time      0.7471: real time      0.7473
    SETDIJ:  cpu time      0.0665: real time      0.0666
    TRIAL :  cpu time      1.5979: real time      1.5981
    CORREC:  cpu time      1.7311: real time      1.7318
    CHARGE:  cpu time      0.1805: real time      0.1805
    --------------------------------------------
      LOOP:  cpu time      4.3355: real time      4.3547

 eigenvalue-minimisations  :     0
 total energy-change (2. order) :-0.2737521E-05  (-0.7177145E-06)
 number of electron     128.0000000 magnetization 
 augmentation part       -0.4505714 magnetization 

 Free energy of the ion-electron system (eV)
  ---------------------------------------------------
  alpha Z        PSCENC =       118.91601032
  Ewald energy   TEWEN  =     -3118.12717471
  -Hartree energ DENC   =     -2254.75215199
  -exchange      EXHF   =         0.00000000
  -V(xc)+E(xc)   XCENC  =       370.66094831
  PAW double counting   =     54229.87109613   -54162.55834120
  entropy T*S    EENTRO =        -0.00000000
  eigenvalues    EBANDS =     -1074.47347253
  atomic energy  EATOM  =      5664.49702926
  ---------------------------------------------------
  free energy    TOTEN  =      -225.96605641 eV

  energy without entropy =     -225.96605641  energy(sigma->0) =     -225.96605641


--------------------------------------------------------------------------------------------------------




--------------------------------------- Iteration      1(  19)  ---------------------------------------


    POTLOK:  cpu time      0.7470: real time      0.7472
    SETDIJ:  cpu time      0.0677: real time      0.0677
    TRIAL :  cpu time      1.5911: real time      1.5917
    CORREC:  cpu time      1.7382: real time      1.7389
    CHARGE:  cpu time      0.1807: real time      0.1807
    --------------------------------------------
      LOOP:  cpu time      4.3361: real time      4.3574

 eigenvalue-minimisations  :     0
 total energy-change (2. order) :-0.7152703E-06  (-0.2032647E-06)
 number of electron     128.0000000 magnetization 
 augmentation part       -0.4505678 magnetization 

 Free energy of the ion-electron system (eV)
  ---------------------------------------------------
  alpha Z        PSCENC =       118.91601032
  Ewald energy   TEWEN  =     -3118.12717471
  -Hartree energ DENC   =     -2254.74923679
  -exchange      EXHF   =         0.00000000
  -V(xc)+E(xc)   XCENC  =       370.66088600
  PAW double counting   =     54233.04180862   -54165.72902226
  entropy T*S    EENTRO =        -0.00000000
  eigenvalues    EBANDS =     -1074.47635757
  atomic energy  EATOM  =      5664.49702926
  ---------------------------------------------------
  free energy    TOTEN  =      -225.96605713 eV

  energy without entropy =     -225.96605713  energy(sigma->0) =     -225.96605713


--------------------------------------------------------------------------------------------------------




--------------------------------------- Iteration      1(  20)  ---------------------------------------


    POTLOK:  cpu time      0.7492: real time      0.7493
    SETDIJ:  cpu time      0.0665: real time      0.0665
    TRIAL :  cpu time      1.5930: real time      1.5935
    CORREC:  cpu time      1.7176: real time      1.7183
    CHARGE:  cpu time      0.1784: real time      0.1784
    --------------------------------------------
      LOOP:  cpu time      4.3346: real time      4.3363

 eigenvalue-minimisations  :     0
 total energy-change (2. order) :-0.2033339E-06  (-0.7858309E-07)
 number of electron     128.0000000 magnetization 
 augmentation part       -0.4505660 magnetization 

 Free energy of the ion-electron system (eV)
  ---------------------------------------------------
  alpha Z        PSCENC =       118.91601032
  Ewald energy   TEWEN  =     -3118.12717471
  -Hartree energ DENC   =     -2254.75059583
  -exchange      EXHF   =         0.00000000
  -V(xc)+E(xc)   XCENC  =       370.66096657
  PAW double counting   =     54233.44249509   -54166.12973236
  entropy T*S    EENTRO =        -0.00000000
  eigenvalues    EBANDS =     -1074.47505565
  atomic energy  EATOM  =      5664.49702926
  ---------------------------------------------------
  free energy    TOTEN  =      -225.96605733 eV

  energy without entropy =     -225.96605733  energy(sigma->0) =     -225.96605733


--------------------------------------------------------------------------------------------------------




--------------------------------------- Iteration      1(  21)  ---------------------------------------


    POTLOK:  cpu time      0.7472: real time      0.7474
    SETDIJ:  cpu time      0.0665: real time      0.0665
    TRIAL :  cpu time      1.6047: real time      1.6050
    CORREC:  cpu time      1.7614: real time      1.7621
    EDDIAG:  cpu time      0.7980: real time      0.7983
    CHARGE:  cpu time      0.1780: real time      0.1780
    --------------------------------------------
      LOOP:  cpu time      5.1687: real time      5.1885

 eigenvalue-minimisations  :     0
 total energy-change (2. order) :-0.7649942E-07  (-0.3059947E-07)
 number of electron     128.0000000 magnetization 
 augmentation part       -0.4505693 magnetization 

 Free energy of the ion-electron system (eV)
  ---------------------------------------------------
  alpha Z        PSCENC =       118.91601032
  Ewald energy   TEWEN  =     -3118.12717471
  -Hartree energ DENC   =     -2254.75162872
  -exchange      EXHF   =         0.00000000
  -V(xc)+E(xc)   XCENC  =       370.66106368
  PAW double counting   =     54233.03532445   -54165.72259234
  entropy T*S    EENTRO =        -0.00000000
  eigenvalues    EBANDS =     -1074.47408934
  atomic energy  EATOM  =      5664.49702926
  ---------------------------------------------------
  free energy    TOTEN  =      -225.96605741 eV

  energy without entropy =     -225.96605741  energy(sigma->0) =     -225.96605741


--------------------------------------------------------------------------------------------------------


  average scaling for gradient   0.8199


 average (electrostatic) potential at core
  the test charge radii are     0.5902  0.5770  0.4325
  (the norm of the test charge is              1.0000)
       1 -99.7858       2 -99.7859       3 -99.7855       4 -99.7859       5 -99.7855
       6 -99.7854       7 -99.7861       8 -99.7853       9 -98.5439      10 -98.5440
      11 -98.5440      12 -98.5440      13 -98.5442      14 -98.5440      15 -98.5437
      16 -98.5444      17 -83.6081      18 -83.6080      19 -83.6078      20 -83.6080
      21 -83.6080      22 -83.6078      23 -83.6085      24 -83.6075      25 -42.6237
      26 -42.6238      27 -42.6237      28 -42.6244      29 -42.6236      30 -42.6236
      31 -42.6238      32 -42.6233      33 -42.6910      34 -42.6911      35 -42.6911
      36 -42.6917      37 -42.6907      38 -42.6909      39 -42.6911      40 -42.6901



 E-fermi :  -1.0014     XC(G=0):  -8.1937     alpha+bet : -6.6399

 Fermi energy:        -1.0013887896

 k-point     1 :       0.0000    0.0000    0.0000
  band No.  band energies     occupation 
      1     -18.9925      2.00000
      2     -18.8180      2.00000
      3     -18.7142      2.00000
      4     -18.6817      2.00000
      5     -18.6680      2.00000
      6     -18.6614      2.00000
      7     -18.6523      2.00000
      8     -18.6137      2.00000
      9     -17.1278      2.00000
     10     -17.0119      2.00000
     11     -16.9559      2.00000
     12     -16.9237      2.00000
     13     -16.8905      2.00000
     14     -16.8809      2.00000
     15     -16.7816      2.00000
     16     -16.7361      2.00000
     17      -9.8994      2.00000
     18      -9.7419      2.00000
     19      -9.5790      2.00000
     20      -9.5470      2.00000
     21      -9.5253      2.00000
     22      -9.4154      2.00000
     23      -9.4154      2.00000
     24      -9.4092      2.00000
     25      -8.6893      2.00000
     26      -8.6650      2.00000
     27      -8.5416      2.00000
     28      -8.4448      2.00000
     29      -8.4339      2.00000
     30      -8.3824      2.00000
     31      -8.1621      2.00000
     32      -8.1273      2.00000
     33      -5.2942      2.00000
     34      -5.1890      2.00000
     35      -4.9827      2.00000
     36      -4.9559      2.00000
     37      -4.8211      2.00000
     38      -4.8033      2.00000
     39      -4.7454      2.00000
     40      -4.5470      2.00000
[...]
     50      -3.2953      2.00000
     51      -3.1587      2.00000
     52      -3.1583      2.00000
     53      -2.9981      2.00000
     54      -2.9976      2.00000
     55      -2.9480      2.00000
     56      -2.9479      2.00000
     57      -1.5213      2.00000
     58      -1.5212      2.00000
     59      -1.3495      2.00000
     60      -1.3494      2.00000
     61      -1.1933      2.00000
     62      -1.1932      2.00000
     63      -1.0977      2.00000
     64      -1.0975      2.00000
     65       4.1527      0.00000
     66       4.1529      0.00000
     67       4.3426      0.00000
     68       4.3427      0.00000
     69       4.6428      0.00000
     70       4.6431      0.00000
     71       4.7327      0.00000
     72       4.7328      0.00000
     73       5.3654      0.00000
     74       5.3655      0.00000
     75       5.5541      0.00000
     76       5.5541      0.00000
     77       5.8876      0.00000
     78       5.8877      0.00000
     79       6.0816      0.00000
     80       6.0817      0.00000
     81       6.2824      0.00000
     82       6.2824      0.00000
     83       6.5508      0.00000
     84       6.5510      0.00000
     85       7.1618      0.00000
     86       7.1621      0.00000
     87       7.5565      0.00000
     88       7.5629      0.00000

 k-point    25 :       0.2500    0.5000   -0.3333
  band No.  band energies     occupation 
      1     -18.8002      2.00000
      2     -18.7998      2.00000
      3     -18.7420      2.00000
      4     -18.7415      2.00000
      5     -18.7061      2.00000
      6     -18.7058      2.00000
      7     -18.6741      2.00000
      8     -18.6736      2.00000
      9     -16.9634      2.00000
     10     -16.9632      2.00000
     11     -16.9375      2.00000
     12     -16.9373      2.00000
     13     -16.8727      2.00000
     14     -16.8725      2.00000
     15     -16.8663      2.00000
     16     -16.8661      2.00000
     17      -9.6780      2.00000
     18      -9.6776      2.00000
     19      -9.6227      2.00000
     20      -9.6223      2.00000
     21      -9.4926      2.00000
     22      -9.4921      2.00000
     23      -9.4705      2.00000
     24      -9.4701      2.00000
     25      -8.5648      2.00000
     26      -8.5644      2.00000
     27      -8.5032      2.00000
     28      -8.5029      2.00000
     29      -8.3571      2.00000
     30      -8.3568      2.00000
     31      -8.3399      2.00000
     32      -8.3396      2.00000
     33      -5.0321      2.00000
     34      -5.0320      2.00000
     35      -4.9463      2.00000
     36      -4.9461      2.00000
     37      -4.6380      2.00000
     38      -4.6379      2.00000
     39      -4.6036      2.00000
     40      -4.6035      2.00000
     41      -4.4728      2.00000
     42      -4.4728      2.00000
     43      -4.4075      2.00000
     44      -4.4074      2.00000
     45      -4.2259      2.00000
     46      -4.2258      2.00000
     47      -4.1499      2.00000
     48      -4.1499      2.00000
     49      -3.2955      2.00000
     50      -3.2953      2.00000
     51      -3.1587      2.00000
     52      -3.1582      2.00000
     53      -2.9981      2.00000
     54      -2.9978      2.00000
     55      -2.9482      2.00000
     56      -2.9477      2.00000
     57      -1.5212      2.00000
     58      -1.5212      2.00000
     59      -1.3495      2.00000
     60      -1.3494      2.00000
     61      -1.1933      2.00000
     62      -1.1932      2.00000
     63      -1.0977      2.00000
     64      -1.0976      2.00000
     65       4.1528      0.00000
     66       4.1529      0.00000
     67       4.3425      0.00000
     68       4.3428      0.00000
     69       4.6429      0.00000
     70       4.6430      0.00000
     71       4.7326      0.00000
     72       4.7329      0.00000
     73       5.3655      0.00000
     74       5.3655      0.00000
     75       5.5541      0.00000
     76       5.5542      0.00000
     77       5.8876      0.00000
     78       5.8878      0.00000
     79       6.0816      0.00000
     80       6.0817      0.00000
     81       6.2823      0.00000
     82       6.2824      0.00000
     83       6.5508      0.00000
     84       6.5510      0.00000
     85       7.1616      0.00000
     86       7.1632      0.00000
     87       7.5550      0.00000
     88       7.5568      0.00000

 k-point    26 :       0.5000    0.5000    0.3333
  band No.  band energies     occupation 
      1     -18.7570      2.00000
      2     -18.7568      2.00000
      3     -18.7566      2.00000
      4     -18.7563      2.00000
      5     -18.7048      2.00000
      6     -18.7046      2.00000
      7     -18.7044      2.00000
      8     -18.7041      2.00000
      9     -16.9514      2.00000
     10     -16.9511      2.00000
     11     -16.9511      2.00000
     12     -16.9510      2.00000
     13     -16.8696      2.00000
     14     -16.8693      2.00000
     15     -16.8692      2.00000
     16     -16.8692      2.00000
     17      -9.6427      2.00000
     18      -9.6425      2.00000
     19      -9.6423      2.00000
     20      -9.6420      2.00000
     21      -9.4958      2.00000
     22      -9.4955      2.00000
     23      -9.4953      2.00000
     24      -9.4950      2.00000
     25      -8.4635      2.00000
     26      -8.4632      2.00000
     27      -8.4629      2.00000
     28      -8.4628      2.00000
     29      -8.4069      2.00000
     30      -8.4066      2.00000
     31      -8.4062      2.00000
     32      -8.4062      2.00000
     33      -4.8832      2.00000
     34      -4.8830      2.00000
     35      -4.8829      2.00000
     36      -4.8828      2.00000
     37      -4.7303      2.00000
     38      -4.7301      2.00000
     39      -4.7300      2.00000
     40      -4.7299      2.00000
     41      -4.4502      2.00000
     42      -4.4502      2.00000
     43      -4.4501      2.00000
     44      -4.4501      2.00000
     45      -4.1754      2.00000
     46      -4.1754      2.00000
     47      -4.1753      2.00000
     48      -4.1753      2.00000
     49      -3.1959      2.00000
     50      -3.1958      2.00000
     51      -3.1956      2.00000
     52      -3.1954      2.00000
     53      -3.0402      2.00000
     54      -3.0401      2.00000
     55      -3.0399      2.00000
     56      -3.0397      2.00000
     57      -1.4074      2.00000
     58      -1.4074      2.00000
     59      -1.4073      2.00000
     60      -1.4072      2.00000
     61      -1.1675      2.00000
     62      -1.1674      2.00000
     63      -1.1673      2.00000
     64      -1.1673      2.00000
     65       4.2355      0.00000
     66       4.2356      0.00000
     67       4.2357      0.00000
     68       4.2359      0.00000
     69       4.6967      0.00000
     70       4.6968      0.00000
     71       4.6969      0.00000
     72       4.6971      0.00000
     73       5.5978      0.00000
     74       5.5979      0.00000
     75       5.5979      0.00000
     76       5.5979      0.00000
     77       5.9245      0.00000
     78       5.9246      0.00000
     79       5.9247      0.00000
     80       5.9247      0.00000
     81       6.6215      0.00000
     82       6.6216      0.00000
     83       6.6218      0.00000
     84       6.6227      0.00000
     85       7.1008      0.00000
     86       7.1009      0.00000
     87       7.1013      0.00000
     88       7.1029      0.00000


--------------------------------------------------------------------------------------------------------


 soft charge-density along one line, spin component           1
         0         1         2         3         4         5         6         7         8         9
 total charge-density along one line

 pseudopotential strength for first ion, spin component:           1
 19.935  27.920  -0.018   0.020  -0.010  -0.027   0.029  -0.015
 27.920  39.105  -0.026   0.027  -0.014  -0.038   0.041  -0.021
 -0.018  -0.026  -5.853   0.005   0.009  -8.784   0.008   0.013
  0.020   0.027   0.005  -5.862   0.003   0.008  -8.798   0.005
 -0.010  -0.014   0.009   0.003  -5.847   0.013   0.005  -8.774
 -0.027  -0.038  -8.784   0.008   0.013 -13.162   0.012   0.020
  0.029   0.041   0.008  -8.798   0.005   0.012 -13.184   0.007
 -0.015  -0.021   0.013   0.005  -8.774   0.020   0.007 -13.148
 total augmentation occupancy for first ion, spin component:           1
 12.046  -5.657  -1.391   1.830  -0.601   0.698  -0.984   0.269
 -5.657   2.731   0.916  -1.235   0.378  -0.420   0.627  -0.143
 -1.391   0.916   6.592  -1.113  -1.820  -2.484   0.638   0.985
  1.830  -1.235  -1.113   8.732  -0.693   0.638  -3.682   0.373
 -0.601   0.378  -1.820  -0.693   5.352   0.985   0.373  -1.793
  0.698  -0.420  -2.484   0.638   0.985   0.985  -0.320  -0.447
 -0.984   0.627   0.638  -3.682   0.373  -0.320   1.572  -0.170
  0.269  -0.143   0.985   0.373  -1.793  -0.447  -0.170   0.655


------------------------ aborting loop because EDIFF is reached ----------------------------------------


    FORLOC:  cpu time      0.0068: real time      0.0068
    FORNL :  cpu time      0.8674: real time      0.8682
    FORCOR:  cpu time      0.8193: real time      0.8196
    OFIELD:  cpu time      0.0024: real time      0.0024

 VOLUME and BASIS-vectors are now :
 -----------------------------------------------------------------------------
  energy-cutoff  :     1000.00
  volume of cell :      415.65
      direct lattice vectors                 reciprocal lattice vectors
     6.856000000  0.000000000  0.000000000     0.145857643  0.000000000  0.000000000
     0.000000000  6.628000000  0.000000000     0.000000000  0.150875075  0.000000000
     0.000000000  0.000000000  9.147000000     0.000000000  0.000000000  0.109325462

  length of vectors
     6.856000000  6.628000000  9.147000000     0.145857643  0.150875075  0.109325462


 FORCES acting on ions:
    Electron-Ion                     Ewald-Force                    Non-Local-Force
 -----------------------------------------------------------------------------------------------
   -.534E+01 -.377E+02 0.832E+02   0.104E+02 0.470E+02 -.931E+02   -.508E+01 -.927E+01 0.991E+01
   0.534E+01 0.377E+02 -.832E+02   -.104E+02 -.470E+02 0.931E+02   0.508E+01 0.927E+01 -.991E+01
   0.534E+01 0.377E+02 0.831E+02   -.104E+02 -.469E+02 -.931E+02   0.508E+01 0.927E+01 0.991E+01
   -.534E+01 -.377E+02 -.831E+02   0.104E+02 0.470E+02 0.931E+02   -.508E+01 -.927E+01 -.991E+01
   0.534E+01 -.377E+02 -.831E+02   -.104E+02 0.469E+02 0.931E+02   0.508E+01 -.928E+01 -.992E+01
   -.534E+01 0.377E+02 0.831E+02   0.104E+02 -.469E+02 -.931E+02   -.508E+01 0.928E+01 0.992E+01
   -.533E+01 0.377E+02 -.832E+02   0.104E+02 -.470E+02 0.931E+02   -.508E+01 0.928E+01 -.991E+01
   0.535E+01 -.377E+02 0.831E+02   -.104E+02 0.470E+02 -.931E+02   0.508E+01 -.928E+01 0.991E+01
   -.331E+01 0.586E+02 -.143E+03   0.393E+01 -.731E+02 0.174E+03   -.620E+00 0.145E+02 -.309E+02
   0.332E+01 -.586E+02 0.143E+03   -.393E+01 0.731E+02 -.174E+03   0.620E+00 -.145E+02 0.309E+02
   0.330E+01 -.586E+02 -.143E+03   -.393E+01 0.731E+02 0.174E+03   0.619E+00 -.145E+02 -.309E+02
   -.333E+01 0.586E+02 0.143E+03   0.393E+01 -.731E+02 -.174E+03   -.619E+00 0.145E+02 0.309E+02
   0.331E+01 0.586E+02 0.143E+03   -.393E+01 -.731E+02 -.174E+03   0.618E+00 0.145E+02 0.309E+02
   -.331E+01 -.586E+02 -.143E+03   0.393E+01 0.731E+02 0.174E+03   -.618E+00 -.145E+02 -.309E+02
   -.333E+01 -.586E+02 0.143E+03   0.393E+01 0.731E+02 -.174E+03   -.619E+00 -.145E+02 0.309E+02
   0.330E+01 0.586E+02 -.143E+03   -.393E+01 -.731E+02 0.174E+03   0.619E+00 0.145E+02 -.309E+02
   0.311E+01 -.136E+02 0.376E+02   -.325E+01 0.943E+01 -.302E+02   0.139E+00 0.436E+01 -.785E+01
   -.311E+01 0.136E+02 -.376E+02   0.325E+01 -.943E+01 0.302E+02   -.139E+00 -.436E+01 0.785E+01
   -.311E+01 0.136E+02 0.376E+02   0.325E+01 -.944E+01 -.302E+02   -.139E+00 -.436E+01 -.786E+01
   0.310E+01 -.136E+02 -.376E+02   -.325E+01 0.944E+01 0.302E+02   0.139E+00 0.436E+01 0.786E+01
   -.310E+01 -.136E+02 -.376E+02   0.325E+01 0.946E+01 0.302E+02   -.139E+00 0.436E+01 0.786E+01
   0.310E+01 0.136E+02 0.376E+02   -.325E+01 -.946E+01 -.302E+02   0.139E+00 -.436E+01 -.786E+01
   0.311E+01 0.136E+02 -.376E+02   -.326E+01 -.944E+01 0.302E+02   0.139E+00 -.436E+01 0.786E+01
   -.311E+01 -.136E+02 0.376E+02   0.325E+01 0.944E+01 -.302E+02   -.139E+00 0.436E+01 -.786E+01
   -.206E+02 0.194E+02 0.433E+02   0.237E+02 -.223E+02 -.490E+02   -.316E+01 0.288E+01 0.571E+01
   0.206E+02 -.194E+02 -.433E+02   -.237E+02 0.223E+02 0.490E+02   0.316E+01 -.288E+01 -.571E+01
   0.206E+02 -.194E+02 0.433E+02   -.237E+02 0.223E+02 -.490E+02   0.317E+01 -.288E+01 0.571E+01
   -.206E+02 0.194E+02 -.433E+02   0.237E+02 -.223E+02 0.490E+02   -.317E+01 0.288E+01 -.571E+01
   0.206E+02 0.194E+02 -.433E+02   -.237E+02 -.223E+02 0.490E+02   0.316E+01 0.288E+01 -.571E+01
   -.206E+02 -.194E+02 0.433E+02   0.237E+02 0.223E+02 -.490E+02   -.316E+01 -.288E+01 0.571E+01
   -.206E+02 -.194E+02 -.433E+02   0.237E+02 0.223E+02 0.490E+02   -.316E+01 -.288E+01 -.571E+01
   0.206E+02 0.194E+02 0.433E+02   -.237E+02 -.223E+02 -.490E+02   0.316E+01 0.288E+01 0.571E+01
   0.340E+02 -.386E+02 0.151E+02   -.387E+02 0.440E+02 -.161E+02   0.464E+01 -.542E+01 0.923E+00
   -.340E+02 0.386E+02 -.151E+02   0.387E+02 -.440E+02 0.161E+02   -.464E+01 0.542E+01 -.923E+00
   -.340E+02 0.386E+02 0.151E+02   0.387E+02 -.440E+02 -.161E+02   -.464E+01 0.542E+01 0.924E+00
   0.340E+02 -.386E+02 -.151E+02   -.387E+02 0.440E+02 0.161E+02   0.464E+01 -.542E+01 -.924E+00
   -.340E+02 -.386E+02 -.151E+02   0.387E+02 0.440E+02 0.161E+02   -.464E+01 -.542E+01 -.924E+00
   0.340E+02 0.386E+02 0.151E+02   -.387E+02 -.440E+02 -.161E+02   0.464E+01 0.542E+01 0.924E+00
   0.340E+02 0.386E+02 -.151E+02   -.387E+02 -.440E+02 0.161E+02   0.464E+01 0.542E+01 -.923E+00
   -.340E+02 -.386E+02 0.151E+02   0.387E+02 0.440E+02 -.161E+02   -.464E+01 -.542E+01 0.923E+00
 -----------------------------------------------------------------------------------------------
   -.465E-01 0.137E+00 -.486E-01   -.213E-13 0.711E-13 -.128E-12   0.000E+00 0.888E-15 -.444E-14


 POSITION                                       TOTAL-FORCE (eV/Angst)
 -----------------------------------------------------------------------------------
      0.98679      1.10121      0.99078        -0.001979      0.064003     -0.129690
      5.86921      5.52682      8.15622         0.001979     -0.064003      0.129690
      2.44123      5.52683      5.56428         0.001415     -0.063176     -0.127892
      4.41477      1.10120      3.58272        -0.001415      0.063176      0.127892
      5.86923      4.41522      3.58273         0.001661      0.062646      0.126780
      0.98677      2.21281      5.56427        -0.001661     -0.062646     -0.126780
      4.41477      2.21281      8.15622        -0.002538     -0.063522      0.127799
      2.44121      4.41522      0.99079         0.002538      0.063522     -0.127799
      1.00419      6.60938      3.20382         0.003639     -0.054001      0.144281
      5.85181      0.01866      5.94318        -0.003639      0.054001     -0.144281
      2.42382      0.01860      7.77728        -0.003782      0.057253      0.150586
      4.43221      6.60940      1.36974         0.003782     -0.057253     -0.150586
      5.85183      3.29537      1.36974        -0.003945     -0.058221     -0.152914
      1.00416      3.33266      7.77726         0.003945      0.058221      0.152914
      4.43218      3.33260      5.94315         0.003656      0.055603     -0.147333
      2.42385      3.29539      3.20387        -0.003656     -0.055603      0.147333
      0.99084      0.49271      2.14750        -0.008504      0.012609     -0.041664
      5.86516      6.13533      6.99950         0.008504     -0.012609      0.041664
      2.43716      6.13530      6.72103         0.008704     -0.015870     -0.048932
      4.41885      0.49272      2.42599        -0.008704      0.015870      0.048932
      5.86515      3.80670      2.42595         0.008970      0.018274      0.054090
      0.99085      2.82133      6.72105        -0.008970     -0.018274     -0.054090
      4.41881      2.82132      6.99945        -0.008455     -0.015403      0.047308
      2.43718      3.80670      2.14757         0.008455      0.015403     -0.047308
      1.44156      0.67055      0.17059        -0.020698      0.010504      0.027582
      5.41444      5.95747      8.97641         0.020698     -0.010504     -0.027582
      1.98649      5.95746      4.74414         0.019614     -0.009501      0.025917
      4.86951      0.67059      4.40287        -0.019614      0.009501     -0.025917
      5.41448      3.98459      4.40292         0.020215      0.009957     -0.027228
      1.44152      2.64344      4.74408        -0.020215     -0.009957      0.027228
      4.86954      2.64349      8.97641        -0.020913     -0.010662     -0.028040
      1.98646      3.98455      0.17059         0.020913      0.010662      0.028040
      0.31571      1.87181      0.86440         0.017400     -0.027938     -0.002929
      6.54029      4.75623      8.28259        -0.017400      0.027938      0.002929
      3.11224      4.75627      5.43788        -0.015824      0.026129     -0.003153
      3.74376      1.87176      3.70911         0.015824     -0.026129      0.003153
      6.54028      5.18580      3.70912        -0.016815     -0.027380      0.002717
      0.31571      1.44224      5.43788         0.016815      0.027380     -0.002717
      3.74368      1.44220      8.28258         0.018117      0.028786      0.002774
      3.11232      5.18582      0.86442        -0.018117     -0.028786     -0.002774
 -----------------------------------------------------------------------------------
    total drift:                               -0.046451      0.137224     -0.048597


--------------------------------------------------------------------------------------------------------



  FREE ENERGIE OF THE ION-ELECTRON SYSTEM (eV)
  ---------------------------------------------------
  free  energy   TOTEN  =      -225.96605741 eV

  energy  without entropy=     -225.96605741  energy(sigma->0) =     -225.96605741



--------------------------------------------------------------------------------------------------------


    POTLOK:  cpu time      0.8265: real time      0.8269


--------------------------------------------------------------------------------------------------------


 stress matrix after NEB project (eV)
      0.00000      0.00000      0.00000
      0.00000      0.00000      0.00000
      0.00000      0.00000      0.00000
  FORCES: max atom, RMS     0.163671    0.100699
  FORCE total and by dimension    0.636878    0.152914
  Stress total and by dimension    0.000000    0.000000
     LOOP+:  cpu time     96.6015: real time     96.9484
    4ORBIT:  cpu time      0.0000: real time      0.0000

 total amount of memory used by VASP MPI-rank0    49410. kBytes
=======================================================================

   base      :      30000. kBytes
   nonl-proj :       2658. kBytes
   fftplans  :       1300. kBytes
   grid      :       2273. kBytes
   one-center:          3. kBytes
   wavefun   :      13176. kBytes

  
  
 General timing and accounting informations for this job:
 ========================================================
  
                  Total CPU time used (sec):      125.859
                            User time (sec):      122.856
                          System time (sec):        3.004
                         Elapsed time (sec):      130.738
  
                   Maximum memory used (kb):      309068.
                   Average memory used (kb):          N/A
  
                          Minor page faults:       142489
                          Major page faults:          285
                 Voluntary context switches:         6025
