 vasp.6.4.1 05Apr23 (build Jun  6 2023 14:36:51) complex                         
 executed on        HPECrayEX_GCC date 2024.08.20  15:05:11
 running  256 mpi-ranks, with    1 threads/rank, on    2 nodes
 distrk:  each k-point on  256 cores,    1 groups
 distr:  one band on NCORE=   2 cores,  128 groups


--------------------------------------------------------------------------------------------------------


 INCAR:
   ALGO = Conjugate
   NCORE = 2
   PREC = Accurate
   EDIFF = 1E-7
   ENCUT = 1000
   ISMEAR = 0
   SIGMA = 0.01
   ISIF = 0
   SYMPREC = 1E-7
   GGA = B5
   ALDAX = 1.0
   AGGAX = 1.0
   AGGAC = 1.0
   ALDAC = 0.0
   IVDW = 11
   VDW_S8 = 1.682
   VDW_SR = 1.094
   LWAVE = .FALSE.
   LCHARGE = .FALSE.
   LWAVE = .FALSE.
   LCHARGE = .FALSE.

 POTCAR:    PAW_PBE C_h 06Feb2004                 
 POTCAR:    PAW_PBE H_h 06Feb2004                 
 POTCAR:    PAW_PBE N_h 06Feb2004                 
 POTCAR:    PAW_PBE O_h 06Feb2004                 
 POTCAR:    PAW_PBE C_h 06Feb2004                 
   VRHFIN =C: s2p2                                                                                  
   LEXCH  = PE                                                                                      
   EATOM  =   147.1560 eV,   10.8157 Ry                                                             
                                                                                                    
   TITEL  = PAW_PBE C_h 06Feb2004                                                                   
   LULTRA =        F    use ultrasoft PP ?                                                          
   IUNSCR =        1    unscreen: 0-lin 1-nonlin 2-no                                               
   RPACOR =    0.800    partial core radius                                                         
   POMASS =   12.011; ZVAL   =    4.000    mass and valenz                                          
   RCORE  =    1.100    outmost cutoff radius                                                       
   RWIGS  =    1.630; RWIGS  =    0.863    wigner-seitz radius (au A)                               
   ENMAX  =  700.000; ENMIN  =  500.000 eV                                                          
   ICORE  =        2    local potential                                                             
   LCOR   =        T    correct aug charges                                                         
   LPAW   =        T    paw PP                                                                      
   EAUG   =  946.768                                                                                
   DEXC   =    0.000                                                                                
   RMAX   =    1.128    core radius for proj-oper                                                   
   RAUG   =    1.300    factor for augmentation sphere                                              
   RDEP   =    1.162    radius for radial grids                                                     
   RDEPT  =    1.088    core radius for aug-charge                                                  
                                                                                                    
   Atomic configuration                                                                             
    4 entries                                                                                       
     n  l   j            E        occ.                                                              
     1  0  0.50      -273.3789   2.0000                                                             
     2  0  0.50       -13.7508   2.0000                                                             
     2  1  0.50        -5.2854   2.0000                                                             
     3  2  1.50        -5.4423   0.0000                                                             
   Description                                                                                      
     l       E           TYP  RCUT    TYP  RCUT                                                     
     0    -13.7508458     23  1.100                                                                 
     0     -8.2022199     23  1.100                                                                 
     1     -5.2854383     23  1.100                                                                 
     1      1.1560700     23  1.100                                                                 
     2     -5.4423304      7  1.100                                                                 
  local pseudopotential read in
  partial core-charges read in
  partial kinetic energy density read in
  atomic valenz-charges read in
  non local Contribution for L=           0  read in
    real space projection operators read in
  non local Contribution for L=           0  read in
    real space projection operators read in
  non local Contribution for L=           1  read in
    real space projection operators read in
  non local Contribution for L=           1  read in
    real space projection operators read in
    PAW grid and wavefunctions read in

   number of l-projection  operators is LMAX  =           4
   number of lm-projection operators is LMMAX =           8

 POTCAR:    PAW_PBE H_h 06Feb2004                 
   VRHFIN =H: ultrasoft test                                                                        
   LEXCH  = PE                                                                                      
   EATOM  =    12.4884 eV,    0.9179 Ry                                                             
                                                                                                    
   TITEL  = PAW_PBE H_h 06Feb2004                                                                   
   LULTRA =        F    use ultrasoft PP ?                                                          
   IUNSCR =        0    unscreen: 0-lin 1-nonlin 2-no                                               
   RPACOR =    0.000    partial core radius                                                         
   POMASS =    1.000; ZVAL   =    1.000    mass and valenz                                          
   RCORE  =    0.800    outmost cutoff radius                                                       
   RWIGS  =    0.700; RWIGS  =    0.370    wigner-seitz radius (au A)                               
   ENMAX  =  700.000; ENMIN  =  350.000 eV                                                          
   RCLOC  =    0.701    cutoff for local pot                                                        
   LCOR   =        T    correct aug charges                                                         
   LPAW   =        T    paw PP                                                                      
   EAUG   = 1000.000                                                                                
   RMAX   =    0.819    core radius for proj-oper                                                   
   RAUG   =    1.000    factor for augmentation sphere                                              
   RDEP   =    0.817    radius for radial grids                                                     
   RDEPT  =    0.817    core radius for aug-charge                                                  
                                                                                                    
   Atomic configuration                                                                             
    2 entries                                                                                       
     n  l   j            E        occ.                                                              
     1  0  0.50        -6.4927   1.0000                                                             
     2  1  0.50        -3.4015   0.0000                                                             
   Description                                                                                      
     l       E           TYP  RCUT    TYP  RCUT                                                     
     0     -6.4927493     23  0.800                                                                 
     0      6.8029130     23  0.800                                                                 
     1     -6.8029130     23  0.800                                                                 
  local pseudopotential read in
  atomic valenz-charges read in
  non local Contribution for L=           0  read in
    real space projection operators read in
  non local Contribution for L=           0  read in
    real space projection operators read in
  non local Contribution for L=           1  read in
    real space projection operators read in
    PAW grid and wavefunctions read in

   number of l-projection  operators is LMAX  =           3
   number of lm-projection operators is LMMAX =           5

 POTCAR:    PAW_PBE N_h 06Feb2004                 
   VRHFIN =N: s2p3                                                                                  
   LEXCH  = PE                                                                                      
   EATOM  =   264.5486 eV,   19.4438 Ry                                                             
                                                                                                    
   TITEL  = PAW_PBE N_h 06Feb2004                                                                   
   LULTRA =        F    use ultrasoft PP ?                                                          
   IUNSCR =        1    unscreen: 0-lin 1-nonlin 2-no                                               
   RPACOR =    0.800    partial core radius                                                         
   POMASS =   14.001; ZVAL   =    5.000    mass and valenz                                          
   RCORE  =    1.100    outmost cutoff radius                                                       
   RWIGS  =    1.480; RWIGS  =    0.783    wigner-seitz radius (au A)                               
   ENMAX  =  700.000; ENMIN  =  500.000 eV                                                          
   ICORE  =        2    local potential                                                             
   LCOR   =        T    correct aug charges                                                         
   LPAW   =        T    paw PP                                                                      
   EAUG   =  904.640                                                                                
   DEXC   =    0.000                                                                                
   RMAX   =    1.127    core radius for proj-oper                                                   
   RAUG   =    1.300    factor for augmentation sphere                                              
   RDEP   =    1.115    radius for radial grids                                                     
   RDEPT  =    1.106    core radius for aug-charge                                                  
                                                                                                    
   Atomic configuration                                                                             
    4 entries                                                                                       
     n  l   j            E        occ.                                                              
     1  0  0.50      -384.7179   2.0000                                                             
     2  0  0.50       -18.5828   2.0000                                                             
     2  1  0.50        -7.0898   3.0000                                                             
     3  2  1.50        -6.8029   0.0000                                                             
   Description                                                                                      
     l       E           TYP  RCUT    TYP  RCUT                                                     
     0    -18.5828117     23  1.100                                                                 
     0    -15.0750597     23  1.100                                                                 
     1     -7.0897851     23  1.100                                                                 
     1     -1.9663412     23  1.100                                                                 
     2     -6.8029130      7  1.100                                                                 
  local pseudopotential read in
  partial core-charges read in
  partial kinetic energy density read in
  kinetic energy density of atom read in
  atomic valenz-charges read in
  non local Contribution for L=           0  read in
    real space projection operators read in
  non local Contribution for L=           0  read in
    real space projection operators read in
  non local Contribution for L=           1  read in
    real space projection operators read in
  non local Contribution for L=           1  read in
    real space projection operators read in
    PAW grid and wavefunctions read in

   number of l-projection  operators is LMAX  =           4
   number of lm-projection operators is LMMAX =           8

 POTCAR:    PAW_PBE O_h 06Feb2004                 
   VRHFIN =O: s2p4                                                                                  
   LEXCH  = PE                                                                                      
   EATOM  =   432.3788 eV,   31.7789 Ry                                                             
                                                                                                    
   TITEL  = PAW_PBE O_h 06Feb2004                                                                   
   LULTRA =        F    use ultrasoft PP ?                                                          
   IUNSCR =        1    unscreen: 0-lin 1-nonlin 2-no                                               
   RPACOR =    0.800    partial core radius                                                         
   POMASS =   16.000; ZVAL   =    6.000    mass and valenz                                          
   RCORE  =    1.100    outmost cutoff radius                                                       
   RWIGS  =    1.400; RWIGS  =    0.741    wigner-seitz radius (au A)                               
   ENMAX  =  700.000; ENMIN  =  500.000 eV                                                          
   ICORE  =        2    local potential                                                             
   LCOR   =        T    correct aug charges                                                         
   LPAW   =        T    paw PP                                                                      
   EAUG   =  888.804                                                                                
   DEXC   =    0.000                                                                                
   RMAX   =    1.128    core radius for proj-oper                                                   
   RAUG   =    1.300    factor for augmentation sphere                                              
   RDEP   =    1.125    radius for radial grids                                                     
   RDEPT  =    1.088    core radius for aug-charge                                                  
                                                                                                    
   Atomic configuration                                                                             
    4 entries                                                                                       
     n  l   j            E        occ.                                                              
     1  0  0.50      -514.6923   2.0000                                                             
     2  0  0.50       -23.9615   2.0000                                                             
     2  1  0.50        -9.0305   4.0000                                                             
     3  2  1.50        -9.5241   0.0000                                                             
   Description                                                                                      
     l       E           TYP  RCUT    TYP  RCUT                                                     
     0    -23.9615319     23  1.100                                                                 
     0    -25.3221145     23  1.100                                                                 
     1     -9.0304911     23  1.100                                                                 
     1     -5.4802209     23  1.100                                                                 
     2     -9.5240782      7  1.100                                                                 
  local pseudopotential read in
  partial core-charges read in
  partial kinetic energy density read in
  atomic valenz-charges read in
  non local Contribution for L=           0  read in
    real space projection operators read in
  non local Contribution for L=           0  read in
    real space projection operators read in
  non local Contribution for L=           1  read in
    real space projection operators read in
  non local Contribution for L=           1  read in
    real space projection operators read in
    PAW grid and wavefunctions read in

   number of l-projection  operators is LMAX  =           4
   number of lm-projection operators is LMMAX =           8

 -----------------------------------------------------------------------------
|                                                                             |
|               ----> ADVICE to this user running VASP <----                  |
|                                                                             |
|     You have a (more or less) 'large supercell' and for larger cells it     |
|     might be more efficient to use real-space projection operators.         |
|     Therefore, try LREAL= Auto in the INCAR file.                           |
|     Mind: For very accurate calculation, you might also keep the            |
|     reciprocal projection scheme (i.e. LREAL=.FALSE.).                      |
|                                                                             |
 -----------------------------------------------------------------------------

 -----------------------------------------------------------------------------
|                                                                             |
|               ----> ADVICE to this user running VASP <----                  |
|                                                                             |
|     You enforced a specific xc type in the INCAR file but a different       |
|     type was found in the POTCAR file.                                      |
|     I HOPE YOU KNOW WHAT YOU ARE DOING!                                     |
|                                                                             |
 -----------------------------------------------------------------------------

  PAW_PBE C_h 06Feb2004                 :
 energy of atom  1       EATOM= -147.1560
 kinetic energy error for atom=    0.0031 (will be added to EATOM!!)
  PAW_PBE H_h 06Feb2004                 :
 energy of atom  2       EATOM=  -12.4884
 kinetic energy error for atom=    0.0006 (will be added to EATOM!!)
  PAW_PBE N_h 06Feb2004                 :
 energy of atom  3       EATOM= -264.5486
 kinetic energy error for atom=    0.0081 (will be added to EATOM!!)
  PAW_PBE O_h 06Feb2004                 :
 energy of atom  4       EATOM= -432.3788
 kinetic energy error for atom=    0.0171 (will be added to EATOM!!)


 POSCAR:  C  H  N  O
  positions in cartesian coordinates
  No initial velocities read in
 exchange correlation table for  LEXCH =       12
   RHO(1)=    0.500       N(1)  =     2000
   RHO(2)=  100.500       N(2)  =     4000

 VTST: version 4.1, (05/19/21)

 CHAIN: initializing optimizer
 
 OPT: Using VASP Dynamics algorithm
 CHAIN: Read ICHAIN            0

 POSCAR:  C  H  N  O
  positions in cartesian coordinates
  No initial velocities read in



--------------------------------------------------------------------------------------------------------


 ion  position               nearest neighbor table
   1  0.150  0.210  0.002-  41 1.23  33 1.38  37 1.38
   2  0.850  0.790  0.998-  42 1.23  34 1.38  38 1.38
   3  0.350  0.710  0.998-  43 1.23  35 1.38  39 1.38
   4  0.650  0.290  0.002-  44 1.23  36 1.38  40 1.38
   5  0.180  0.012  0.036-  45 1.26  37 1.39   9 1.43
   6  0.820  0.988  0.964-  46 1.26  38 1.39  10 1.43
   7  0.320  0.512  0.964-  47 1.26  39 1.39  11 1.43
   8  0.680  0.488  0.036-  48 1.26  40 1.39  12 1.43
   9  0.305  0.028  0.081-  29 1.09  13 1.36   5 1.43
  10  0.695  0.972  0.919-  30 1.09  14 1.36   6 1.43
  11  0.195  0.528  0.919-  31 1.09  15 1.36   7 1.43
  12  0.805  0.472  0.081-  32 1.09  16 1.36   8 1.43
  13  0.346  0.131  0.082-  17 1.09   9 1.36  33 1.37
  14  0.654  0.869  0.918-  18 1.09  10 1.36  34 1.37
  15  0.154  0.631  0.918-  19 1.09  11 1.36  35 1.37
  16  0.846  0.369  0.082-  20 1.09  12 1.36  36 1.37
  17  0.439  0.150  0.109-  13 1.09
  18  0.561  0.850  0.891-  14 1.09
  19  0.061  0.650  0.891-  15 1.09
  20  0.939  0.350  0.109-  16 1.09
  21  0.303  0.296  0.029-  33 1.04
  22  0.697  0.704  0.971-  34 1.04
  23  0.197  0.796  0.971-  35 1.04
  24  0.803  0.204  0.029-  36 1.04
  25  0.020  0.095  0.975-  37 1.04
  26  0.980  0.905  0.025-  38 1.04
  27  0.480  0.595  0.025-  39 1.04
  28  0.520  0.405  0.975-  40 1.04
  29  0.364  0.958  0.105-   9 1.09
  30  0.636  0.042  0.895-  10 1.09
  31  0.136  0.458  0.895-  11 1.09
  32  0.864  0.542  0.105-  12 1.09
  33  0.271  0.219  0.042-  21 1.04  13 1.37   1 1.38
  34  0.729  0.781  0.958-  22 1.04  14 1.37   2 1.38
  35  0.229  0.719  0.958-  23 1.04  15 1.37   3 1.38
  36  0.771  0.281  0.042-  24 1.04  16 1.37   4 1.38
  37  0.110  0.104  0.002-  25 1.04   1 1.38   5 1.39
  38  0.890  0.896  0.998-  26 1.04   2 1.38   6 1.39
  39  0.390  0.604  0.998-  27 1.04   3 1.38   7 1.39
  40  0.610  0.396  0.002-  28 1.04   4 1.38   8 1.39
  41  0.082  0.288  0.969-   1 1.23
  42  0.918  0.712  0.031-   2 1.23
  43  0.418  0.788  0.031-   3 1.23
  44  0.582  0.212  0.969-   4 1.23
  45  0.130  0.921  0.024-   5 1.26
  46  0.870  0.079  0.976-   6 1.26
  47  0.370  0.421  0.976-   7 1.26
  48  0.630  0.579  0.024-   8 1.26

  LATTYP: Found a simple monoclinic cell.
 ALAT       =     3.6552030546
 B/A-ratio  =     3.3858584093
 C/A-ratio  =     2.8209883382
 COS(beta)  =    -0.1144127651
  
  Lattice vectors:
  
 A1 = (  -1.8771000000,   0.0000000000,   3.1364000000)
 A2 = (   0.0000000000,  12.3760000000,   0.0000000000)
 A3 = (  -8.1838000000,   0.0000000000,  -6.2728000000)


Analysis of symmetry for initial positions (statically):
=====================================================================
 Subroutine PRICEL returns:
 Original cell was already a primitive cell.
 

 Routine SETGRP: Setting up the symmetry group for a 
 simple monoclinic supercell.


 Subroutine GETGRP returns: Found  1 space group operations
 (whereof  1 operations were pure point group operations)
 out of a pool of  4 trial point group operations.


The static configuration has the point symmetry C_1 .


Analysis of symmetry for dynamics (positions and initial velocities):
=====================================================================
 Subroutine PRICEL returns:
 Original cell was already a primitive cell.
 

 Routine SETGRP: Setting up the symmetry group for a 
 simple monoclinic supercell.


 Subroutine GETGRP returns: Found  1 space group operations
 (whereof  1 operations were pure point group operations)
 out of a pool of  4 trial point group operations.


The dynamic configuration has the point symmetry C_1 .


 Subroutine INISYM returns: Found  1 space group operations
 (whereof  1 operations are pure point group operations),
 and found     1 'primitive' translations


----------------------------------------------------------------------------------------

                                     Primitive cell                                     

  volume of cell :     463.3864

  direct lattice vectors                    reciprocal lattice vectors
    11.938000000  0.000000000  0.000000000     0.083766125 -0.000000000  0.050133080
     0.000000000 12.376000000  0.000000000     0.000000000  0.080801551 -0.000000000
    -1.877100000  0.000000000  3.136400000     0.000000000  0.000000000  0.318836883

  length of vectors
    11.938000000 12.376000000  3.655203055     0.097622177  0.080801551  0.318836883

  position of ions in fractional coordinates (direct lattice)
     0.149580618  0.209623269  0.001831121
     0.850417213  0.790376539  0.998163511
     0.350407635  0.709613621  0.998183581
     0.649592224  0.290386168  0.001816419
     0.180215063  0.011536781  0.035721859
     0.819785039  0.988463219  0.964281041
     0.319776839  0.511530666  0.964233478
     0.680221971  0.488469932  0.035769177
     0.305387829  0.028221002  0.080678025
     0.694611805  0.971779533  0.919322750
     0.194604640  0.528206891  0.919286067
     0.805394751  0.471793659  0.080718026
     0.345974732  0.131166833  0.081593880
     0.654023657  0.868834041  0.918401933
     0.154009015  0.631148610  0.918379852
     0.845989874  0.368852240  0.081618867
     0.438926475  0.150361137  0.108619284
     0.561071430  0.849640358  0.891374454
     0.061058203  0.650338574  0.891363696
     0.938940442  0.349662584  0.108633730
     0.302644485  0.296112538  0.029281946
     0.697352583  0.703888455  0.970712028
     0.197335818  0.796094125  0.970695505
     0.802664167  0.203906340  0.029304941
     0.019533000  0.095422181  0.975385415
     0.980467000  0.904576760  0.024617953
     0.480462911  0.595421316  0.024621106
     0.519536592  0.404578259  0.975381500
     0.364014306  0.958341714  0.105253170
     0.635986132  0.041659169  0.894748535
     0.135978130  0.458323922  0.894701106
     0.864020770  0.541676745  0.105301313
     0.270843352  0.218678168  0.042173240
     0.729154218  0.781322279  0.957819920
     0.229138066  0.718661336  0.957802351
     0.770861298  0.281339143  0.042195329
     0.110219802  0.104381911  0.002125776
     0.889779634  0.895617686  0.997876395
     0.389774022  0.604375984  0.997871781
     0.610225229  0.395623594  0.002129859
     0.081569843  0.288193772  0.968875937
     0.918426357  0.711805298  0.031111810
     0.418418594  0.788189720  0.031196117
     0.581581372  0.211809991  0.968804490
     0.130443513  0.920939270  0.024151366
     0.869557570  0.079060636  0.975856560
     0.369543505  0.420932320  0.975736545
     0.630456776  0.579067681  0.024275675

  ion indices of the primitive-cell ions
   primitive index   ion index
                 1           1
                 2           2
                 3           3
                 4           4
                 5           5
                 6           6
                 7           7
                 8           8
                 9           9
                10          10
                11          11
                12          12
                13          13
                14          14
                15          15
                16          16
                17          17
                18          18
                19          19
                20          20
                21          21
                22          22
                23          23
                24          24
                25          25
                26          26
                27          27
                28          28
                29          29
                30          30
                31          31
                32          32
                33          33
                34          34
                35          35
                36          36
                37          37
                38          38
                39          39
                40          40
                41          41
                42          42
                43          43
                44          44
                45          45
                46          46
                47          47
                48          48

----------------------------------------------------------------------------------------



 KPOINTS: auto                                    

Automatic generation of k-mesh.
 Grid dimensions read from file:
 generate k-points for:    3    2    9

 Generating k-lattice:

  Cartesian coordinates                     Fractional coordinates (reciprocal lattice)
     0.027922042 -0.000000000  0.016711027     0.333333333  0.000000000  0.000000000
     0.000000000  0.040400776 -0.000000000     0.000000000  0.500000000  0.000000000
     0.000000000  0.000000000  0.035426320     0.000000000  0.000000000  0.111111111

  Length of vectors
     0.032540726  0.040400776  0.035426320

  Shift w.r.t. Gamma in fractional coordinates (k-lattice)
     0.000000000  0.000000000  0.000000000

 
 Subroutine IBZKPT returns following result:
 ===========================================
 
 Found     28 irreducible k-points:
 
 Following reciprocal coordinates:
            Coordinates               Weight
  0.000000  0.000000  0.000000      1.000000
  0.333333  0.000000  0.000000      2.000000
  0.000000  0.500000  0.000000      1.000000
  0.333333  0.500000  0.000000      2.000000
  0.000000  0.000000  0.111111      2.000000
  0.333333  0.000000  0.111111      2.000000
 -0.333333  0.000000  0.111111      2.000000
  0.000000  0.500000  0.111111      2.000000
  0.333333  0.500000  0.111111      2.000000
 -0.333333  0.500000  0.111111      2.000000
  0.000000  0.000000  0.222222      2.000000
  0.333333  0.000000  0.222222      2.000000
 -0.333333  0.000000  0.222222      2.000000
  0.000000  0.500000  0.222222      2.000000
  0.333333  0.500000  0.222222      2.000000
 -0.333333  0.500000  0.222222      2.000000
  0.000000  0.000000  0.333333      2.000000
  0.333333  0.000000  0.333333      2.000000
 -0.333333  0.000000  0.333333      2.000000
  0.000000  0.500000  0.333333      2.000000
  0.333333  0.500000  0.333333      2.000000
 -0.333333  0.500000  0.333333      2.000000
  0.000000  0.000000  0.444444      2.000000
  0.333333  0.000000  0.444444      2.000000
 -0.333333  0.000000  0.444444      2.000000
  0.000000  0.500000  0.444444      2.000000
  0.333333  0.500000  0.444444      2.000000
 -0.333333  0.500000  0.444444      2.000000
 
 Following cartesian coordinates:
            Coordinates               Weight
  0.000000  0.000000  0.000000      1.000000
  0.027922  0.000000  0.016711      2.000000
  0.000000  0.040401  0.000000      1.000000
  0.027922  0.040401  0.016711      2.000000
  0.000000  0.000000  0.035426      2.000000
  0.027922  0.000000  0.052137      2.000000
 -0.027922  0.000000  0.018715      2.000000
  0.000000  0.040401  0.035426      2.000000
  0.027922  0.040401  0.052137      2.000000
 -0.027922  0.040401  0.018715      2.000000
  0.000000  0.000000  0.070853      2.000000
  0.027922  0.000000  0.087564      2.000000
 -0.027922  0.000000  0.054142      2.000000
  0.000000  0.040401  0.070853      2.000000
  0.027922  0.040401  0.087564      2.000000
 -0.027922  0.040401  0.054142      2.000000
  0.000000  0.000000  0.106279      2.000000
  0.027922  0.000000  0.122990      2.000000
 -0.027922  0.000000  0.089568      2.000000
  0.000000  0.040401  0.106279      2.000000
  0.027922  0.040401  0.122990      2.000000
 -0.027922  0.040401  0.089568      2.000000
  0.000000  0.000000  0.141705      2.000000
  0.027922  0.000000  0.158416      2.000000
 -0.027922  0.000000  0.124994      2.000000
  0.000000  0.040401  0.141705      2.000000
  0.027922  0.040401  0.158416      2.000000
 -0.027922  0.040401  0.124994      2.000000
 


--------------------------------------------------------------------------------------------------------




 Dimension of arrays:
   k-points           NKPTS =     28   k-points in BZ     NKDIM =     28   number of bands    NBANDS=    128
   number of dos      NEDOS =    301   number of ions     NIONS =     48
   non local maximal  LDIM  =      4   non local SUM 2l+1 LMDIM =      8
   total plane-waves  NPLWV = 645120
   max r-space proj   IRMAX =      1   max aug-charges    IRDMAX=  10352
   dimension x,y,z NGX =   126 NGY =  128 NGZ =   40
   dimension x,y,z NGXF=   252 NGYF=  256 NGZF=   80
   support grid    NGXF=   252 NGYF=  256 NGZF=   80
   ions per type =              16  16   8   8
   NGX,Y,Z   is equivalent  to a cutoff of  17.55, 17.19, 18.19 a.u.
   NGXF,Y,Z  is equivalent  to a cutoff of  35.09, 34.39, 36.39 a.u.

 SYSTEM =  unknown system                          
 POSCAR =   C  H  N  O                             

 Startparameter for this run:
   NWRITE =      2    write-flag & timer
   PREC   = accura    normal or accurate (medium, high low for compatibility)
   ISTART =      0    job   : 0-new  1-cont  2-samecut
   ICHARG =      2    charge: 1-file 2-atom 10-const
   ISPIN  =      1    spin polarized calculation?
   LNONCOLLINEAR =      F non collinear calculations
   LSORBIT =      F    spin-orbit coupling
   INIWAV =      1    electr: 0-lowe 1-rand  2-diag
   LASPH  =      F    aspherical Exc in radial PAW
 Electronic Relaxation 1
   ENCUT  = 1000.0 eV  73.50 Ry    8.57 a.u.  30.78 31.91  9.42*2*pi/ulx,y,z
   ENINI  = 1000.0     initial cutoff
   ENAUG  = 1000.0 eV  augmentation charge cutoff
   NELM   =     60;   NELMIN=  2; NELMDL= -5     # of ELM steps 
   EDIFF  = 0.1E-06   stopping-criterion for ELM
   LREAL  =      F    real-space projection
   NLSPLINE    = F    spline interpolate recip. space projectors
   LCOMPAT=      F    compatible to vasp.4.4
   GGA_COMPAT  = T    GGA compatible to vasp.4.4-vasp.4.6
   LMAXPAW     = -100 max onsite density
   LMAXMIX     =    2 max onsite mixed and CHGCAR
   VOSKOWN=      0    Vosko Wilk Nusair interpolation
   ROPT   =    0.00000   0.00000   0.00000   0.00000
 Ionic relaxation
   EDIFFG = 0.1E-05   stopping-criterion for IOM
   NSW    =      0    number of steps for IOM
   NBLOCK =      1;   KBLOCK =      1    inner block; outer block 
   IBRION =     -1    ionic relax: 0-MD 1-quasi-New 2-CG
   NFREE  =      0    steps in history (QN), initial steepest desc. (CG)
   ISIF   =      0    stress and relaxation
   IWAVPR =     10    prediction:  0-non 1-charg 2-wave 3-comb
   ISYM   =      2    0-nonsym 1-usesym 2-fastsym
   LCORR  =      T    Harris-Foulkes like correction to forces

   POTIM  = 0.5000    time-step for ionic-motion
   TEIN   =    0.0    initial temperature
   TEBEG  =    0.0;   TEEND  =   0.0 temperature during run
   SMASS  =  -3.00    Nose mass-parameter (am)
   estimated Nose-frequenzy (Omega)   =  0.10E-29 period in steps = 0.13E+47 mass=  -0.326E-26a.u.
   SCALEE = 1.0000    scale energy and forces
   NPACO  =    256;   APACO  = 10.0  distance and # of slots for P.C.
   PSTRESS=    0.0 pullay stress

  Mass of Ions in am
   POMASS =  12.01  1.00 14.00 16.00
  Ionic Valenz
   ZVAL   =   4.00  1.00  5.00  6.00
  Atomic Wigner-Seitz radii
   RWIGS  =  -1.00 -1.00 -1.00 -1.00
  virtual crystal weights 
   VCA    =   1.00  1.00  1.00  1.00
   NELECT =     168.0000    total number of electrons
   NUPDOWN=      -1.0000    fix difference up-down

 DOS related values:
   EMIN   =  10.00;   EMAX   =-10.00  energy-range for DOS
   EFERMI =   0.00;   METHOD = LEGACY      
   ISMEAR =     0;   SIGMA  =   0.01  broadening in eV -4-tet -1-fermi 0-gaus

 Electronic relaxation 2 (details)
   IALGO  =     58    algorithm
   LDIAG  =      T    sub-space diagonalisation (order eigenvalues)
   LSUBROT=      F    optimize rotation matrix (better conditioning)
   TURBO    =      0    0=normal 1=particle mesh
   IRESTART =      0    0=no restart 2=restart with 2 vectors
   NREBOOT  =      0    no. of reboots
   NMIN     =      0    reboot dimension
   EREF     =   0.00    reference energy to select bands
   IMIX   =      4    mixing-type and parameters
     AMIX     =   0.40;   BMIX     =  1.00
     AMIX_MAG =   1.60;   BMIX_MAG =  1.00
     AMIN     =   0.10
     WC   =   100.;   INIMIX=   1;  MIXPRE=   1;  MAXMIX= -45

 Intra band minimization:
   WEIMIN = 0.0000     energy-eigenvalue tresh-hold
   EBREAK =  0.20E-09  absolut break condition
   DEPER  =   0.30     relativ break condition  

   TIME   =   0.40     timestep for ELM

  volume/ion in A,a.u.               =       9.65        65.15
  Fermi-wavevector in a.u.,A,eV,Ry     =   1.167339  2.205950 18.540376  1.362679
  Thomas-Fermi vector in A             =   2.303840

 Write flags
   LWAVE        =      F    write WAVECAR
   LDOWNSAMPLE  =      F    k-point downsampling of WAVECAR
   LCHARG       =      T    write CHGCAR
   LVTOT        =      F    write LOCPOT, total local potential
   LVHAR        =      F    write LOCPOT, Hartree potential only
   LELF         =      F    write electronic localiz. function (ELF)
   LORBIT       =      0    0 simple, 1 ext, 2 COOP (PROOUT), +10 PAW based schemes


 Dipole corrections
   LMONO  =      F    monopole corrections only (constant potential shift)
   LDIPOL =      F    correct potential (dipole corrections)
   IDIPOL =      0    1-x, 2-y, 3-z, 4-all directions 
   EPSILON=  1.0000000 bulk dielectric constant

 Exchange correlation treatment:
   GGA     =    B5    GGA type
   LEXCH   =    12    internal setting for exchange type
   LIBXC   =     F    Libxc                    
   VOSKOWN =     0    Vosko Wilk Nusair interpolation
   LHFCALC =     F    Hartree Fock is set to
   LHFONE  =     F    Hartree Fock one center treatment
   AEXX    =    0.0000 exact exchange contribution

 Linear response parameters
   LEPSILON=     F    determine dielectric tensor
   LRPA    =     F    only Hartree local field effects (RPA)
   LNABLA  =     F    use nabla operator in PAW spheres
   LVEL    =     F    velocity operator in full k-point grid
   CSHIFT  =0.1000    complex shift for real part using Kramers Kronig
   OMEGAMAX=  -1.0    maximum frequency
   DEG_THRESHOLD= 0.2000000E-02 threshold for treating states as degnerate
   RTIME   =   -0.100 relaxation time in fs
  (WPLASMAI=    0.000 imaginary part of plasma frequency in eV, 0.658/RTIME)
   DFIELD  = 0.0000000 0.0000000 0.0000000 field for delta impulse in time

  Optional k-point grid parameters
   LKPOINTS_OPT  =     F    use optional k-point grid
   KPOINTS_OPT_MODE=     1    mode for optional k-point grid

 Orbital magnetization related:
   ORBITALMAG=     F  switch on orbital magnetization
   LCHIMAG   =     F  perturbation theory with respect to B field
   DQ        =  0.001000  dq finite difference perturbation B field
   LLRAUG    =     F  two centre corrections for induced B field
   LBONE     =     F  B-component reconstruction in AE one-centre
   LVGVCALC  =     T  calculate vGv susceptibility
   LVGVAPPL  =     F  apply vGv susceptibility instead of pGv for G=0

 Random number generation:
   RANDOM_GENERATOR = DEFAULT
   PCG_SEED         = not used


--------------------------------------------------------------------------------------------------------


 Static calculation
 charge density and potential will be updated during run
 non-spin polarized calculation
 Conjugate gradient for all bands (Freysoldt, et al. PRB 79, 241103 (2009))
 preconditioned conjugated gradient                                        
 perform sub-space diagonalisation
    before iterative eigenvector-optimisation
 modified Broyden-mixing scheme, WC =      100.0
 initial mixing is a Kerker type mixing with AMIX =  0.4000 and BMIX =      1.0000
 Hartree-type preconditioning will be used
 using additional bands           44
 reciprocal scheme for non local part
 use partial core corrections
 no Harris-corrections to forces 
 use gradient corrections 
 use of overlap-Matrix (Vanderbilt PP)
 Gauss-broadening in eV      SIGMA  =   0.01


--------------------------------------------------------------------------------------------------------


  energy-cutoff  :     1000.00
  volume of cell :      463.39
      direct lattice vectors                 reciprocal lattice vectors
    11.938000000  0.000000000  0.000000000     0.083766125 -0.000000000  0.050133080
     0.000000000 12.376000000  0.000000000     0.000000000  0.080801551 -0.000000000
    -1.877100000  0.000000000  3.136400000     0.000000000  0.000000000  0.318836883

  length of vectors
    11.938000000 12.376000000  3.655203055     0.097622177  0.080801551  0.318836883



 k-points in units of 2pi/SCALE and weight: auto                                    
   0.00000000  0.00000000  0.00000000       0.019
   0.02792204  0.00000000  0.01671103       0.037
   0.00000000  0.04040078  0.00000000       0.019
   0.02792204  0.04040078  0.01671103       0.037
   0.00000000  0.00000000  0.03542632       0.037
   0.02792204  0.00000000  0.05213735       0.037
  -0.02792204  0.00000000  0.01871529       0.037
   0.00000000  0.04040078  0.03542632       0.037
   0.02792204  0.04040078  0.05213735       0.037
  -0.02792204  0.04040078  0.01871529       0.037
   0.00000000  0.00000000  0.07085264       0.037
   0.02792204  0.00000000  0.08756367       0.037
  -0.02792204  0.00000000  0.05414161       0.037
   0.00000000  0.04040078  0.07085264       0.037
   0.02792204  0.04040078  0.08756367       0.037
  -0.02792204  0.04040078  0.05414161       0.037
   0.00000000  0.00000000  0.10627896       0.037
   0.02792204  0.00000000  0.12298999       0.037
  -0.02792204  0.00000000  0.08956793       0.037
   0.00000000  0.04040078  0.10627896       0.037
   0.02792204  0.04040078  0.12298999       0.037
  -0.02792204  0.04040078  0.08956793       0.037
   0.00000000  0.00000000  0.14170528       0.037
   0.02792204  0.00000000  0.15841631       0.037
  -0.02792204  0.00000000  0.12499425       0.037
   0.00000000  0.04040078  0.14170528       0.037
   0.02792204  0.04040078  0.15841631       0.037
  -0.02792204  0.04040078  0.12499425       0.037

 k-points in reciprocal lattice and weights: auto                                    
   0.00000000  0.00000000  0.00000000       0.019
   0.33333333  0.00000000  0.00000000       0.037
   0.00000000  0.50000000  0.00000000       0.019
   0.33333333  0.50000000  0.00000000       0.037
   0.00000000  0.00000000  0.11111111       0.037
   0.33333333  0.00000000  0.11111111       0.037
  -0.33333333  0.00000000  0.11111111       0.037
   0.00000000  0.50000000  0.11111111       0.037
   0.33333333  0.50000000  0.11111111       0.037
  -0.33333333  0.50000000  0.11111111       0.037
   0.00000000  0.00000000  0.22222222       0.037
   0.33333333  0.00000000  0.22222222       0.037
  -0.33333333  0.00000000  0.22222222       0.037
   0.00000000  0.50000000  0.22222222       0.037
   0.33333333  0.50000000  0.22222222       0.037
  -0.33333333  0.50000000  0.22222222       0.037
   0.00000000  0.00000000  0.33333333       0.037
   0.33333333  0.00000000  0.33333333       0.037
  -0.33333333  0.00000000  0.33333333       0.037
   0.00000000  0.50000000  0.33333333       0.037
   0.33333333  0.50000000  0.33333333       0.037
  -0.33333333  0.50000000  0.33333333       0.037
   0.00000000  0.00000000  0.44444444       0.037
   0.33333333  0.00000000  0.44444444       0.037
  -0.33333333  0.00000000  0.44444444       0.037
   0.00000000  0.50000000  0.44444444       0.037
   0.33333333  0.50000000  0.44444444       0.037
  -0.33333333  0.50000000  0.44444444       0.037

 position of ions in fractional coordinates (direct lattice) 
   0.14958062  0.20962327  0.00183112
   0.85041721  0.79037654  0.99816351
   0.35040764  0.70961362  0.99818358
   0.64959222  0.29038617  0.00181642
   0.18021506  0.01153678  0.03572186
   0.81978504  0.98846322  0.96428104
   0.31977684  0.51153067  0.96423348
   0.68022197  0.48846993  0.03576918
   0.30538783  0.02822100  0.08067803
   0.69461180  0.97177953  0.91932275
   0.19460464  0.52820689  0.91928607
   0.80539475  0.47179366  0.08071803
   0.34597473  0.13116683  0.08159388
   0.65402366  0.86883404  0.91840193
   0.15400901  0.63114861  0.91837985
   0.84598987  0.36885224  0.08161887
   0.43892648  0.15036114  0.10861928
   0.56107143  0.84964036  0.89137445
   0.06105820  0.65033857  0.89136370
   0.93894044  0.34966258  0.10863373
   0.30264448  0.29611254  0.02928195
   0.69735258  0.70388846  0.97071203
   0.19733582  0.79609413  0.97069551
   0.80266417  0.20390634  0.02930494
   0.01953300  0.09542218  0.97538542
   0.98046700  0.90457676  0.02461795
   0.48046291  0.59542132  0.02462111
   0.51953659  0.40457826  0.97538150
   0.36401431  0.95834171  0.10525317
   0.63598613  0.04165917  0.89474854
   0.13597813  0.45832392  0.89470111
   0.86402077  0.54167675  0.10530131
   0.27084335  0.21867817  0.04217324
   0.72915422  0.78132228  0.95781992
   0.22913807  0.71866134  0.95780235
   0.77086130  0.28133914  0.04219533
   0.11021980  0.10438191  0.00212578
   0.88977963  0.89561769  0.99787639
   0.38977402  0.60437598  0.99787178
   0.61022523  0.39562359  0.00212986
   0.08156984  0.28819377  0.96887594
   0.91842636  0.71180530  0.03111181
   0.41841859  0.78818972  0.03119612
   0.58158137  0.21180999  0.96880449
   0.13044351  0.92093927  0.02415137
   0.86955757  0.07906064  0.97585656
   0.36954350  0.42093232  0.97573655
   0.63045678  0.57906768  0.02427568

 position of ions in cartesian coordinates  (Angst):
   1.78225622  2.59429758  0.00574313
   8.27862796  9.78170004  3.13064003
   2.30947595  8.78217817  3.13070298
   7.75142237  3.59381922  0.00569702
   2.08435392  0.14277921  0.11203804
   7.97654185 12.23322079  3.02437106
   2.00753325  6.33070352  3.02422188
   8.05334757  6.04530388  0.11218645
   3.49427918  0.34926312  0.25303856
   6.56661499 12.02674350  2.88336387
   0.59759831  6.53708848  2.88324882
   9.46328674  5.83891832  0.25316402
   3.97708648  1.62332073  0.25591104
   6.08380215 10.75269009  2.88047582
   0.11466880  7.81109519  2.88040657
   9.94622034  4.56491532  0.25598942
   5.03601501  1.86086943  0.34067352
   5.02487175 10.51514907  2.79570684
  -0.94426597  8.04859019  2.79567310
  11.00515462  4.32742414  0.34071883
   3.55800472  3.66468878  0.09183989
   6.50287158  8.71132352  3.04454121
   0.53370246  9.85246089  3.04448938
   9.52719652  2.52354487  0.09191202
  -1.59771100  1.18094491  3.05919882
  11.65860468 11.19504198  0.07721175
   5.68954995  7.36893421  0.07722164
   4.37133923  5.00706054  3.05918654
   4.14803206 11.86043705  0.33011604
   5.91286997  0.51557388  2.80628931
  -0.05613653  5.67221686  2.80614055
  10.11701886  6.70379140  0.33026704
   3.15416454  2.70636101  0.13227215
   6.90671928  9.66964452  3.00410640
   0.93755944  8.89415270  3.00405129
   9.12333732  3.48185324  0.13234143
   1.31181370  1.29183053  0.00666728
   8.74907549 11.08416448  3.12973953
   2.78001716  7.47975718  3.12972506
   7.28087082  4.89623760  0.00668009
  -0.84489623  3.56668612  3.03878249
  10.90577388  8.80930236  0.09757908
   4.93652294  9.75463598  0.09784350
   5.12437551  2.62136045  3.03855840
   1.51190013 11.39754441  0.07574834
   8.54899792  0.97845444  3.06067651
   2.58005529  5.20945840  3.06030010
   7.48082512  7.16654161  0.07613823



--------------------------------------------------------------------------------------------------------


 k-point   1 :   0.0000 0.0000 0.0000  plane waves:   33337
 k-point   2 :   0.3333 0.0000 0.0000  plane waves:   33316
 k-point   3 :   0.0000 0.5000 0.0000  plane waves:   33300
 k-point   4 :   0.3333 0.5000 0.0000  plane waves:   33326
 k-point   5 :   0.0000 0.0000 0.1111  plane waves:   33331
 k-point   6 :   0.3333 0.0000 0.1111  plane waves:   33295
 k-point   7 :  -0.3333 0.0000 0.1111  plane waves:   33302
 k-point   8 :   0.0000 0.5000 0.1111  plane waves:   33314
 k-point   9 :   0.3333 0.5000 0.1111  plane waves:   33326
 k-point  10 :  -0.3333 0.5000 0.1111  plane waves:   33312
 k-point  11 :   0.0000 0.0000 0.2222  plane waves:   33285
 k-point  12 :   0.3333 0.0000 0.2222  plane waves:   33314
 k-point  13 :  -0.3333 0.0000 0.2222  plane waves:   33283
 k-point  14 :   0.0000 0.5000 0.2222  plane waves:   33278
 k-point  15 :   0.3333 0.5000 0.2222  plane waves:   33292
 k-point  16 :  -0.3333 0.5000 0.2222  plane waves:   33290
 k-point  17 :   0.0000 0.0000 0.3333  plane waves:   33250
 k-point  18 :   0.3333 0.0000 0.3333  plane waves:   33267
 k-point  19 :  -0.3333 0.0000 0.3333  plane waves:   33230
 k-point  20 :   0.0000 0.5000 0.3333  plane waves:   33250
 k-point  21 :   0.3333 0.5000 0.3333  plane waves:   33256
 k-point  22 :  -0.3333 0.5000 0.3333  plane waves:   33288
 k-point  23 :   0.0000 0.0000 0.4444  plane waves:   33225
 k-point  24 :   0.3333 0.0000 0.4444  plane waves:   33224
 k-point  25 :  -0.3333 0.0000 0.4444  plane waves:   33179
 k-point  26 :   0.0000 0.5000 0.4444  plane waves:   33222
 k-point  27 :   0.3333 0.5000 0.4444  plane waves:   33210
 k-point  28 :  -0.3333 0.5000 0.4444  plane waves:   33250

 maximum and minimum number of plane-waves per node :     16700    16569

 maximum number of plane-waves:     33337
 maximum index in each direction: 
   IXMAX=   31   IYMAX=   31   IZMAX=    9
   IXMIN=  -31   IYMIN=  -32   IZMIN=   -9


 parallel 3D FFT for wavefunctions:
    minimum data exchange during FFTs selected (reduces bandwidth)
 parallel 3D FFT for charge:
    minimum data exchange during FFTs selected (reduces bandwidth)


 total amount of memory used by VASP MPI-rank0   210945. kBytes
=======================================================================

   base      :      30000. kBytes
   nonl-proj :     133070. kBytes
   fftplans  :      10390. kBytes
   grid      :      14534. kBytes
   one-center:         73. kBytes
   wavefun   :      22878. kBytes

     INWAV:  cpu time      0.0001: real time      0.0003
 Broyden mixing: mesh for mixing (old mesh)
   NGX = 61   NGY = 63   NGZ = 19
  (NGX  =252   NGY  =256   NGZ  = 80)
  gives a total of  73017 points

 initial charge density was supplied:
 charge density of overlapping atoms calculated
 number of electron     168.0000000 magnetization 
 keeping initial charge density in first step


--------------------------------------------------------------------------------------------------------


 Maximum index for augmentation-charges          209 (set IRDMAX)


--------------------------------------------------------------------------------------------------------


 First call to EWALD:  gamma=   0.229
 Maximum number of real-space cells 2x 2x 6
 Maximum number of reciprocal cells 4x 4x 2

    FEWALD:  cpu time      0.0029: real time      0.0029


--------------------------------------- Ionic step        1  -------------------------------------------




--------------------------------------- Iteration      1(   1)  ---------------------------------------


    POTLOK:  cpu time      0.1370: real time      0.1378
    SETDIJ:  cpu time      0.0125: real time      0.0128
    TRIAL :  cpu time     19.8741: real time     19.8852
    CORREC:  cpu time      0.0017: real time      0.0017
    --------------------------------------------
      LOOP:  cpu time     20.0437: real time     20.0560

 eigenvalue-minimisations  :  7168
 total energy-change (2. order) : 0.1176690E+04  (-0.1375213E+05)
 number of electron     168.0000000 magnetization 
 augmentation part      168.0000000 magnetization 

 Free energy of the ion-electron system (eV)
  ---------------------------------------------------
  alpha Z        PSCENC =       181.76911525
  Ewald energy   TEWEN  =     -4035.17288410
  -Hartree energ DENC   =     -3482.74227654
  -exchange      EXHF   =         0.00000000
  -V(xc)+E(xc)   XCENC  =       477.67511602
  PAW double counting   =      6294.30393333    -6214.56032049
  entropy T*S    EENTRO =        -0.00042299
  eigenvalues    EBANDS =      -182.61322884
  atomic energy  EATOM  =      8138.03081598
  ---------------------------------------------------
  free energy    TOTEN  =      1176.68984763 eV

  energy without entropy =     1176.69027062  energy(sigma->0) =     1176.69005912


--------------------------------------------------------------------------------------------------------




--------------------------------------- Iteration      1(   2)  ---------------------------------------


    TRIAL :  cpu time     57.6175: real time     57.6481
    CORREC:  cpu time      0.0003: real time      0.0003
    --------------------------------------------
      LOOP:  cpu time     57.6301: real time     57.6786

 eigenvalue-minimisations  : 11392
 total energy-change (2. order) :-0.1440295E+04  (-0.1436539E+04)
 number of electron     168.0000000 magnetization 
 augmentation part      168.0000000 magnetization 

 Free energy of the ion-electron system (eV)
  ---------------------------------------------------
  alpha Z        PSCENC =       181.76911525
  Ewald energy   TEWEN  =     -4035.17288410
  -Hartree energ DENC   =     -3482.74227654
  -exchange      EXHF   =         0.00000000
  -V(xc)+E(xc)   XCENC  =       477.67511602
  PAW double counting   =      6294.30393333    -6214.56032049
  entropy T*S    EENTRO =        -0.00000000
  eigenvalues    EBANDS =     -1622.90908294
  atomic energy  EATOM  =      8138.03081598
  ---------------------------------------------------
  free energy    TOTEN  =      -263.60558349 eV

  energy without entropy =     -263.60558349  energy(sigma->0) =     -263.60558349


--------------------------------------------------------------------------------------------------------




--------------------------------------- Iteration      1(   3)  ---------------------------------------


    TRIAL :  cpu time     26.9380: real time     26.9535
    CORREC:  cpu time      0.0003: real time      0.0003
    --------------------------------------------
      LOOP:  cpu time     26.9515: real time     26.9840

 eigenvalue-minimisations  :  7808
 total energy-change (2. order) :-0.7695286E+02  (-0.7695286E+02)
 number of electron     168.0000000 magnetization 
 augmentation part      168.0000000 magnetization 

 Free energy of the ion-electron system (eV)
  ---------------------------------------------------
  alpha Z        PSCENC =       181.76911525
  Ewald energy   TEWEN  =     -4035.17288410
  -Hartree energ DENC   =     -3482.74227654
  -exchange      EXHF   =         0.00000000
  -V(xc)+E(xc)   XCENC  =       477.67511602
  PAW double counting   =      6294.30393333    -6214.56032049
  entropy T*S    EENTRO =        -0.00000000
  eigenvalues    EBANDS =     -1699.86194376
  atomic energy  EATOM  =      8138.03081598
  ---------------------------------------------------
  free energy    TOTEN  =      -340.55844431 eV

  energy without entropy =     -340.55844431  energy(sigma->0) =     -340.55844431


--------------------------------------------------------------------------------------------------------




--------------------------------------- Iteration      1(   4)  ---------------------------------------


    TRIAL :  cpu time     97.3952: real time     97.4441
    CORREC:  cpu time      0.0003: real time      0.0003
    --------------------------------------------
      LOOP:  cpu time     97.4248: real time     97.4737

 eigenvalue-minimisations  : 14336
 total energy-change (2. order) :-0.1054115E+01  (-0.1054115E+01)
 number of electron     168.0000000 magnetization 
 augmentation part      168.0000000 magnetization 

 Free energy of the ion-electron system (eV)
  ---------------------------------------------------
  alpha Z        PSCENC =       181.76911525
  Ewald energy   TEWEN  =     -4035.17288410
  -Hartree energ DENC   =     -3482.74227654
  -exchange      EXHF   =         0.00000000
  -V(xc)+E(xc)   XCENC  =       477.67511602
  PAW double counting   =      6294.30393333    -6214.56032049
  entropy T*S    EENTRO =        -0.00000000
  eigenvalues    EBANDS =     -1700.91605901
  atomic energy  EATOM  =      8138.03081598
  ---------------------------------------------------
  free energy    TOTEN  =      -341.61255956 eV

  energy without entropy =     -341.61255956  energy(sigma->0) =     -341.61255956


--------------------------------------------------------------------------------------------------------




--------------------------------------- Iteration      1(   5)  ---------------------------------------


    TRIAL :  cpu time     21.3413: real time     21.3529
    CORREC:  cpu time      0.0003: real time      0.0003
    CHARGE:  cpu time      0.6405: real time      0.6425
    --------------------------------------------
      LOOP:  cpu time     21.9959: real time     22.0270

 eigenvalue-minimisations  :  7168
 total energy-change (2. order) :-0.2214487E-03  (-0.2214487E-03)
 number of electron     168.0000000 magnetization 
 augmentation part        0.6439349 magnetization 

 Free energy of the ion-electron system (eV)
  ---------------------------------------------------
  alpha Z        PSCENC =       181.76911525
  Ewald energy   TEWEN  =     -4035.17288410
  -Hartree energ DENC   =     -3482.74227654
  -exchange      EXHF   =         0.00000000
  -V(xc)+E(xc)   XCENC  =       477.67511602
  PAW double counting   =      6294.30393333    -6214.56032049
  entropy T*S    EENTRO =        -0.00000000
  eigenvalues    EBANDS =     -1700.91628046
  atomic energy  EATOM  =      8138.03081598
  ---------------------------------------------------
  free energy    TOTEN  =      -341.61278101 eV

  energy without entropy =     -341.61278101  energy(sigma->0) =     -341.61278101


--------------------------------------------------------------------------------------------------------




--------------------------------------- Iteration      1(   6)  ---------------------------------------


    POTLOK:  cpu time      0.0944: real time      0.0944
    SETDIJ:  cpu time      0.0049: real time      0.0049
    TRIAL :  cpu time      5.2457: real time      5.2486
    CORREC:  cpu time      2.2036: real time      2.2053
    CHARGE:  cpu time      0.6124: real time      0.6128
    --------------------------------------------
      LOOP:  cpu time      8.1755: real time      8.1947

 eigenvalue-minimisations  :     0
 total energy-change (2. order) : 0.5805662E+02  (-0.2659008E+02)
 number of electron     168.0000000 magnetization 
 augmentation part        0.3013836 magnetization 

 Free energy of the ion-electron system (eV)
  ---------------------------------------------------
  alpha Z        PSCENC =       181.76911525
  Ewald energy   TEWEN  =     -4035.17288410
  -Hartree energ DENC   =     -4295.05921554
  -exchange      EXHF   =         0.00000000
  -V(xc)+E(xc)   XCENC  =       531.52692480
  PAW double counting   =     51678.88980828   -51611.83266103
  entropy T*S    EENTRO =        -0.00000000
  eigenvalues    EBANDS =      -871.70806798
  atomic energy  EATOM  =      8138.03081598
  ---------------------------------------------------
  free energy    TOTEN  =      -283.55616434 eV

  energy without entropy =     -283.55616434  energy(sigma->0) =     -283.55616434


--------------------------------------------------------------------------------------------------------




--------------------------------------- Iteration      1(   7)  ---------------------------------------


    POTLOK:  cpu time      0.0924: real time      0.0924
    SETDIJ:  cpu time      0.0050: real time      0.0050
    TRIAL :  cpu time      5.1374: real time      5.1401
    CORREC:  cpu time      2.1857: real time      2.1868
    CHARGE:  cpu time      0.6109: real time      0.6116
    --------------------------------------------
      LOOP:  cpu time      8.0617: real time      8.0663

 eigenvalue-minimisations  :     0
 total energy-change (2. order) :-0.2661924E+02  (-0.3083957E+01)
 number of electron     168.0000000 magnetization 
 augmentation part        0.2114336 magnetization 

 Free energy of the ion-electron system (eV)
  ---------------------------------------------------
  alpha Z        PSCENC =       181.76911525
  Ewald energy   TEWEN  =     -4035.17288410
  -Hartree energ DENC   =     -3916.42427983
  -exchange      EXHF   =         0.00000000
  -V(xc)+E(xc)   XCENC  =       507.53897018
  PAW double counting   =     69401.30315590   -69328.21473483
  entropy T*S    EENTRO =        -0.00000000
  eigenvalues    EBANDS =     -1259.00555921
  atomic energy  EATOM  =      8138.03081598
  ---------------------------------------------------
  free energy    TOTEN  =      -310.17540067 eV

  energy without entropy =     -310.17540067  energy(sigma->0) =     -310.17540067


--------------------------------------------------------------------------------------------------------




--------------------------------------- Iteration      1(   8)  ---------------------------------------


    POTLOK:  cpu time      0.1224: real time      0.1224
    SETDIJ:  cpu time      0.0050: real time      0.0050
    TRIAL :  cpu time      5.1151: real time      5.1182
    CORREC:  cpu time      2.1821: real time      2.1836
    CHARGE:  cpu time      0.6152: real time      0.6160
    --------------------------------------------
      LOOP:  cpu time      8.0543: real time      8.0804

 eigenvalue-minimisations  :     0
 total energy-change (2. order) :-0.3099446E+01  (-0.1040249E+01)
 number of electron     168.0000000 magnetization 
 augmentation part        0.2079395 magnetization 

 Free energy of the ion-electron system (eV)
  ---------------------------------------------------
  alpha Z        PSCENC =       181.76911525
  Ewald energy   TEWEN  =     -4035.17288410
  -Hartree energ DENC   =     -3913.76091930
  -exchange      EXHF   =         0.00000000
  -V(xc)+E(xc)   XCENC  =       506.83344147
  PAW double counting   =     70950.70377862   -70877.01161900
  entropy T*S    EENTRO =        -0.00000000
  eigenvalues    EBANDS =     -1264.66657606
  atomic energy  EATOM  =      8138.03081598
  ---------------------------------------------------
  free energy    TOTEN  =      -313.27484714 eV

  energy without entropy =     -313.27484714  energy(sigma->0) =     -313.27484714


--------------------------------------------------------------------------------------------------------




--------------------------------------- Iteration      1(   9)  ---------------------------------------


    POTLOK:  cpu time      0.1055: real time      0.1055
    SETDIJ:  cpu time      0.0050: real time      0.0050
    TRIAL :  cpu time      5.1057: real time      5.1088
    CORREC:  cpu time      2.1830: real time      2.1843
    CHARGE:  cpu time      0.6148: real time      0.6157
    --------------------------------------------
      LOOP:  cpu time      8.0263: real time      8.0500

 eigenvalue-minimisations  :     0
 total energy-change (2. order) :-0.1035623E+01  (-0.2995283E+00)
 number of electron     168.0000000 magnetization 
 augmentation part        0.2193201 magnetization 

 Free energy of the ion-electron system (eV)
  ---------------------------------------------------
  alpha Z        PSCENC =       181.76911525
  Ewald energy   TEWEN  =     -4035.17288410
  -Hartree energ DENC   =     -3909.65331044
  -exchange      EXHF   =         0.00000000
  -V(xc)+E(xc)   XCENC  =       506.54494372
  PAW double counting   =     71773.33638979   -71699.53078639
  entropy T*S    EENTRO =        -0.00000000
  eigenvalues    EBANDS =     -1269.63475404
  atomic energy  EATOM  =      8138.03081598
  ---------------------------------------------------
  free energy    TOTEN  =      -314.31047024 eV

  energy without entropy =     -314.31047024  energy(sigma->0) =     -314.31047024


--------------------------------------------------------------------------------------------------------




--------------------------------------- Iteration      1(  10)  ---------------------------------------


    POTLOK:  cpu time      0.0922: real time      0.0922
    SETDIJ:  cpu time      0.0050: real time      0.0050
    TRIAL :  cpu time      5.0825: real time      5.0861
    CORREC:  cpu time      2.1767: real time      2.1783
    CHARGE:  cpu time      0.6123: real time      0.6132
    --------------------------------------------
      LOOP:  cpu time      8.0049: real time      8.0113

 eigenvalue-minimisations  :     0
 total energy-change (2. order) :-0.2985191E+00  (-0.7568257E-01)
 number of electron     168.0000000 magnetization 
 augmentation part        0.2244109 magnetization 

 Free energy of the ion-electron system (eV)
  ---------------------------------------------------
  alpha Z        PSCENC =       181.76911525
  Ewald energy   TEWEN  =     -4035.17288410
  -Hartree energ DENC   =     -3896.67638990
  -exchange      EXHF   =         0.00000000
  -V(xc)+E(xc)   XCENC  =       505.94508966
  PAW double counting   =     70710.23337912   -70636.44551847
  entropy T*S    EENTRO =        -0.00000000
  eigenvalues    EBANDS =     -1282.29259688
  atomic energy  EATOM  =      8138.03081598
  ---------------------------------------------------
  free energy    TOTEN  =      -314.60898933 eV

  energy without entropy =     -314.60898933  energy(sigma->0) =     -314.60898933


--------------------------------------------------------------------------------------------------------




--------------------------------------- Iteration      1(  11)  ---------------------------------------


    POTLOK:  cpu time      0.0922: real time      0.0922
    SETDIJ:  cpu time      0.0050: real time      0.0050
    TRIAL :  cpu time      5.0982: real time      5.1025
    CORREC:  cpu time      2.1967: real time      2.1984
    CHARGE:  cpu time      0.6109: real time      0.6117
    --------------------------------------------
      LOOP:  cpu time      8.0201: real time      8.0412

 eigenvalue-minimisations  :     0
 total energy-change (2. order) :-0.7564086E-01  (-0.1697117E-01)
 number of electron     168.0000000 magnetization 
 augmentation part        0.2221433 magnetization 

 Free energy of the ion-electron system (eV)
  ---------------------------------------------------
  alpha Z        PSCENC =       181.76911525
  Ewald energy   TEWEN  =     -4035.17288410
  -Hartree energ DENC   =     -3894.55807575
  -exchange      EXHF   =         0.00000000
  -V(xc)+E(xc)   XCENC  =       505.80198160
  PAW double counting   =     70004.30461784   -69930.58595215
  entropy T*S    EENTRO =        -0.00000000
  eigenvalues    EBANDS =     -1284.27424887
  atomic energy  EATOM  =      8138.03081598
  ---------------------------------------------------
  free energy    TOTEN  =      -314.68463019 eV

  energy without entropy =     -314.68463019  energy(sigma->0) =     -314.68463019


--------------------------------------------------------------------------------------------------------




--------------------------------------- Iteration      1(  12)  ---------------------------------------


    POTLOK:  cpu time      0.0918: real time      0.0919
    SETDIJ:  cpu time      0.0050: real time      0.0050
    TRIAL :  cpu time      5.0643: real time      5.0683
    CORREC:  cpu time      2.1787: real time      2.1803
    CHARGE:  cpu time      0.6129: real time      0.6136
    --------------------------------------------
      LOOP:  cpu time      7.9675: real time      7.9890

 eigenvalue-minimisations  :     0
 total energy-change (2. order) :-0.1696315E-01  (-0.3769511E-02)
 number of electron     168.0000000 magnetization 
 augmentation part        0.2213282 magnetization 

 Free energy of the ion-electron system (eV)
  ---------------------------------------------------
  alpha Z        PSCENC =       181.76911525
  Ewald energy   TEWEN  =     -4035.17288410
  -Hartree energ DENC   =     -3893.70667144
  -exchange      EXHF   =         0.00000000
  -V(xc)+E(xc)   XCENC  =       505.72667240
  PAW double counting   =     69962.19879168   -69888.47909984
  entropy T*S    EENTRO =        -0.00000000
  eigenvalues    EBANDS =     -1285.06833328
  atomic energy  EATOM  =      8138.03081598
  ---------------------------------------------------
  free energy    TOTEN  =      -314.70159334 eV

  energy without entropy =     -314.70159334  energy(sigma->0) =     -314.70159334


--------------------------------------------------------------------------------------------------------




--------------------------------------- Iteration      1(  13)  ---------------------------------------


    POTLOK:  cpu time      0.0918: real time      0.0919
    SETDIJ:  cpu time      0.0050: real time      0.0050
    TRIAL :  cpu time      5.1060: real time      5.1099
    CORREC:  cpu time      2.1795: real time      2.1810
    CHARGE:  cpu time      0.6148: real time      0.6155
    --------------------------------------------
      LOOP:  cpu time      8.0102: real time      8.0336

 eigenvalue-minimisations  :     0
 total energy-change (2. order) :-0.3766638E-02  (-0.9067826E-03)
 number of electron     168.0000000 magnetization 
 augmentation part        0.2203854 magnetization 

 Free energy of the ion-electron system (eV)
  ---------------------------------------------------
  alpha Z        PSCENC =       181.76911525
  Ewald energy   TEWEN  =     -4035.17288410
  -Hartree energ DENC   =     -3893.56961798
  -exchange      EXHF   =         0.00000000
  -V(xc)+E(xc)   XCENC  =       505.73176343
  PAW double counting   =     70024.19574187   -69950.47747310
  entropy T*S    EENTRO =        -0.00000000
  eigenvalues    EBANDS =     -1285.21282132
  atomic energy  EATOM  =      8138.03081598
  ---------------------------------------------------
  free energy    TOTEN  =      -314.70535998 eV

  energy without entropy =     -314.70535998  energy(sigma->0) =     -314.70535998


--------------------------------------------------------------------------------------------------------




--------------------------------------- Iteration      1(  14)  ---------------------------------------


    POTLOK:  cpu time      0.1219: real time      0.1219
    SETDIJ:  cpu time      0.0059: real time      0.0059
    TRIAL :  cpu time      5.1214: real time      5.1258
    CORREC:  cpu time      2.1803: real time      2.1824
    CHARGE:  cpu time      0.6121: real time      0.6121
    --------------------------------------------
      LOOP:  cpu time      8.0561: real time      8.0789

 eigenvalue-minimisations  :     0
 total energy-change (2. order) :-0.9074717E-03  (-0.2555752E-03)
 number of electron     168.0000000 magnetization 
 augmentation part        0.2205772 magnetization 

 Free energy of the ion-electron system (eV)
  ---------------------------------------------------
  alpha Z        PSCENC =       181.76911525
  Ewald energy   TEWEN  =     -4035.17288410
  -Hartree energ DENC   =     -3893.31608763
  -exchange      EXHF   =         0.00000000
  -V(xc)+E(xc)   XCENC  =       505.70844608
  PAW double counting   =     70045.00892491   -69971.28327609
  entropy T*S    EENTRO =        -0.00000000
  eigenvalues    EBANDS =     -1285.45132185
  atomic energy  EATOM  =      8138.03081598
  ---------------------------------------------------
  free energy    TOTEN  =      -314.70626745 eV

  energy without entropy =     -314.70626745  energy(sigma->0) =     -314.70626745


--------------------------------------------------------------------------------------------------------




--------------------------------------- Iteration      1(  15)  ---------------------------------------


    POTLOK:  cpu time      0.0922: real time      0.0922
    SETDIJ:  cpu time      0.0050: real time      0.0050
    TRIAL :  cpu time      5.1208: real time      5.1248
    CORREC:  cpu time      2.1814: real time      2.1834
    CHARGE:  cpu time      0.6124: real time      0.6125
    --------------------------------------------
      LOOP:  cpu time      8.0416: real time      8.0481

 eigenvalue-minimisations  :     0
 total energy-change (2. order) :-0.2543845E-03  (-0.7494736E-04)
 number of electron     168.0000000 magnetization 
 augmentation part        0.2204014 magnetization 

 Free energy of the ion-electron system (eV)
  ---------------------------------------------------
  alpha Z        PSCENC =       181.76911525
  Ewald energy   TEWEN  =     -4035.17288410
  -Hartree energ DENC   =     -3893.70805339
  -exchange      EXHF   =         0.00000000
  -V(xc)+E(xc)   XCENC  =       505.72901118
  PAW double counting   =     70012.76088042   -69939.04008588
  entropy T*S    EENTRO =        -0.00000000
  eigenvalues    EBANDS =     -1285.07532129
  atomic energy  EATOM  =      8138.03081598
  ---------------------------------------------------
  free energy    TOTEN  =      -314.70652183 eV

  energy without entropy =     -314.70652183  energy(sigma->0) =     -314.70652183


--------------------------------------------------------------------------------------------------------




--------------------------------------- Iteration      1(  16)  ---------------------------------------


    POTLOK:  cpu time      0.0919: real time      0.0919
    SETDIJ:  cpu time      0.0050: real time      0.0050
    TRIAL :  cpu time      5.0848: real time      5.0892
    CORREC:  cpu time      2.1818: real time      2.1839
    CHARGE:  cpu time      0.6143: real time      0.6143
    --------------------------------------------
      LOOP:  cpu time      7.9938: real time      8.0142

 eigenvalue-minimisations  :     0
 total energy-change (2. order) :-0.7547371E-04  (-0.2434486E-04)
 number of electron     168.0000000 magnetization 
 augmentation part        0.2204192 magnetization 

 Free energy of the ion-electron system (eV)
  ---------------------------------------------------
  alpha Z        PSCENC =       181.76911525
  Ewald energy   TEWEN  =     -4035.17288410
  -Hartree energ DENC   =     -3893.62513062
  -exchange      EXHF   =         0.00000000
  -V(xc)+E(xc)   XCENC  =       505.72311968
  PAW double counting   =     70001.42809807   -69927.70511688
  entropy T*S    EENTRO =        -0.00000000
  eigenvalues    EBANDS =     -1285.15461469
  atomic energy  EATOM  =      8138.03081598
  ---------------------------------------------------
  free energy    TOTEN  =      -314.70659731 eV

  energy without entropy =     -314.70659731  energy(sigma->0) =     -314.70659731


--------------------------------------------------------------------------------------------------------




--------------------------------------- Iteration      1(  17)  ---------------------------------------


    POTLOK:  cpu time      0.0922: real time      0.0922
    SETDIJ:  cpu time      0.0050: real time      0.0050
    TRIAL :  cpu time      5.0638: real time      5.0673
    CORREC:  cpu time      2.1984: real time      2.2007
    CHARGE:  cpu time      0.6135: real time      0.6135
    --------------------------------------------
      LOOP:  cpu time      7.9863: real time      8.0093

 eigenvalue-minimisations  :     0
 total energy-change (2. order) :-0.2393259E-04  (-0.7969761E-05)
 number of electron     168.0000000 magnetization 
 augmentation part        0.2203162 magnetization 

 Free energy of the ion-electron system (eV)
  ---------------------------------------------------
  alpha Z        PSCENC =       181.76911525
  Ewald energy   TEWEN  =     -4035.17288410
  -Hartree energ DENC   =     -3893.70981562
  -exchange      EXHF   =         0.00000000
  -V(xc)+E(xc)   XCENC  =       505.72831144
  PAW double counting   =     70003.87055376   -69930.14802205
  entropy T*S    EENTRO =        -0.00000000
  eigenvalues    EBANDS =     -1285.07469589
  atomic energy  EATOM  =      8138.03081598
  ---------------------------------------------------
  free energy    TOTEN  =      -314.70662124 eV

  energy without entropy =     -314.70662124  energy(sigma->0) =     -314.70662124


--------------------------------------------------------------------------------------------------------




--------------------------------------- Iteration      1(  18)  ---------------------------------------


    POTLOK:  cpu time      0.0919: real time      0.0919
    SETDIJ:  cpu time      0.0050: real time      0.0050
    TRIAL :  cpu time      5.0992: real time      5.1031
    CORREC:  cpu time      2.1816: real time      2.1837
    CHARGE:  cpu time      0.6123: real time      0.6124
    --------------------------------------------
      LOOP:  cpu time      8.0201: real time      8.0263

 eigenvalue-minimisations  :     0
 total energy-change (2. order) :-0.7762093E-05  (-0.2602961E-05)
 number of electron     168.0000000 magnetization 
 augmentation part        0.2203209 magnetization 

 Free energy of the ion-electron system (eV)
  ---------------------------------------------------
  alpha Z        PSCENC =       181.76911525
  Ewald energy   TEWEN  =     -4035.17288410
  -Hartree energ DENC   =     -3893.70484420
  -exchange      EXHF   =         0.00000000
  -V(xc)+E(xc)   XCENC  =       505.72776610
  PAW double counting   =     70012.70657079   -69938.98317162
  entropy T*S    EENTRO =        -0.00000000
  eigenvalues    EBANDS =     -1285.07999720
  atomic energy  EATOM  =      8138.03081598
  ---------------------------------------------------
  free energy    TOTEN  =      -314.70662900 eV

  energy without entropy =     -314.70662900  energy(sigma->0) =     -314.70662900


--------------------------------------------------------------------------------------------------------




--------------------------------------- Iteration      1(  19)  ---------------------------------------


    POTLOK:  cpu time      0.0922: real time      0.0922
    SETDIJ:  cpu time      0.0050: real time      0.0050
    TRIAL :  cpu time      5.0645: real time      5.0687
    CORREC:  cpu time      2.2079: real time      2.2102
    CHARGE:  cpu time      0.6178: real time      0.6178
    --------------------------------------------
      LOOP:  cpu time      8.0036: real time      8.0241

 eigenvalue-minimisations  :     0
 total energy-change (2. order) :-0.2544170E-05  (-0.7053143E-06)
 number of electron     168.0000000 magnetization 
 augmentation part        0.2203179 magnetization 

 Free energy of the ion-electron system (eV)
  ---------------------------------------------------
  alpha Z        PSCENC =       181.76911525
  Ewald energy   TEWEN  =     -4035.17288410
  -Hartree energ DENC   =     -3893.70707675
  -exchange      EXHF   =         0.00000000
  -V(xc)+E(xc)   XCENC  =       505.72841039
  PAW double counting   =     70015.98183130   -69942.25857116
  entropy T*S    EENTRO =        -0.00000000
  eigenvalues    EBANDS =     -1285.07827246
  atomic energy  EATOM  =      8138.03081598
  ---------------------------------------------------
  free energy    TOTEN  =      -314.70663154 eV

  energy without entropy =     -314.70663154  energy(sigma->0) =     -314.70663154


--------------------------------------------------------------------------------------------------------




--------------------------------------- Iteration      1(  20)  ---------------------------------------


    POTLOK:  cpu time      0.0920: real time      0.0921
    SETDIJ:  cpu time      0.0050: real time      0.0050
    TRIAL :  cpu time      5.0728: real time      5.0767
    CORREC:  cpu time      2.1766: real time      2.1781
    CHARGE:  cpu time      0.6132: real time      0.6132
    --------------------------------------------
      LOOP:  cpu time      7.9760: real time      7.9958

[...]
    105       9.7866      0.00000
    106       9.7871      0.00000
    107       9.9156      0.00000
    108       9.9164      0.00000
    109      10.1091      0.00000
    110      10.1108      0.00000
    111      10.3064      0.00000
    112      10.3075      0.00000
    113      10.4281      0.00000
    114      10.4288      0.00000
    115      10.7177      0.00000
    116      10.7188      0.00000
    117      10.8369      0.00000
    118      10.8414      0.00000
    119      11.0882      0.00000
    120      11.0928      0.00000
    121      11.3057      0.00000
    122      11.3188      0.00000
    123      11.5733      0.00000
    124      11.5875      0.00000
    125      11.6700      0.00000
    126      11.6885      0.00000
    127      11.8334      0.00000
    128      11.8746      0.00000

 k-point    28 :      -0.3333    0.5000    0.4444
  band No.  band energies     occupation 
      1     -20.4397      2.00000
      2     -20.4397      2.00000
      3     -20.3919      2.00000
      4     -20.3918      2.00000
      5     -19.7388      2.00000
      6     -19.7387      2.00000
      7     -19.6971      2.00000
      8     -19.6970      2.00000
      9     -17.8593      2.00000
     10     -17.8592      2.00000
     11     -17.8435      2.00000
     12     -17.8434      2.00000
     13     -16.6398      2.00000
     14     -16.6395      2.00000
     15     -16.5454      2.00000
     16     -16.5451      2.00000
     17     -13.1365      2.00000
     18     -13.1363      2.00000
     19     -13.0763      2.00000
     20     -13.0762      2.00000
     21     -10.6791      2.00000
     22     -10.6789      2.00000
     23     -10.4901      2.00000
     24     -10.4899      2.00000
     25     -10.0336      2.00000
     26     -10.0333      2.00000
     27     -10.0108      2.00000
     28     -10.0106      2.00000
     29      -8.1201      2.00000
     30      -8.1199      2.00000
     31      -8.0396      2.00000
     32      -8.0395      2.00000
     33      -7.4585      2.00000
     34      -7.4584      2.00000
     35      -7.2635      2.00000
     36      -7.2633      2.00000
     37      -6.4781      2.00000
     38      -6.4780      2.00000
     39      -6.2839      2.00000
     40      -6.2837      2.00000
     41      -5.9256      2.00000
     42      -5.9254      2.00000
     43      -5.7885      2.00000
     44      -5.7883      2.00000
     45      -5.4615      2.00000
     46      -5.4612      2.00000
     47      -5.1942      2.00000
     48      -5.1941      2.00000
     49      -4.8380      2.00000
     50      -4.8377      2.00000
     51      -4.5286      2.00000
     52      -4.5285      2.00000
     53      -4.0938      2.00000
     54      -4.0937      2.00000
     55      -4.0514      2.00000
     56      -4.0513      2.00000
     57      -3.9245      2.00000
     58      -3.9244      2.00000
     59      -3.8850      2.00000
     60      -3.8849      2.00000
     61      -3.4813      2.00000
     62      -3.4813      2.00000
     63      -3.3960      2.00000
     64      -3.3959      2.00000
     65      -2.5325      2.00000
     66      -2.5323      2.00000
     67      -2.4829      2.00000
     68      -2.4827      2.00000
     69      -1.1541      2.00000
     70      -1.1540      2.00000
     71      -0.9575      2.00000
     72      -0.9574      2.00000
     73      -0.7797      2.00000
     74      -0.7795      2.00000
     75      -0.5905      2.00000
     76      -0.5904      2.00000
     77      -0.3302      2.00000
     78      -0.3301      2.00000
     79      -0.1788      2.00000
     80      -0.1787      2.00000
     81       0.1446      2.00000
     82       0.1447      2.00000
     83       0.1779      2.00000
     84       0.1781      2.00000
     85       4.0061      0.00000
     86       4.0062      0.00000
     87       4.2721      0.00000
     88       4.2722      0.00000
     89       5.2611      0.00000
     90       5.2612      0.00000
     91       5.2889      0.00000
     92       5.2889      0.00000
     93       7.6367      0.00000
     94       7.6369      0.00000
     95       8.0505      0.00000
     96       8.0507      0.00000
     97       8.3132      0.00000
     98       8.3134      0.00000
     99       8.8207      0.00000
    100       8.8209      0.00000
    101       9.1870      0.00000
    102       9.1879      0.00000
    103       9.4889      0.00000
    104       9.4891      0.00000
    105       9.7281      0.00000
    106       9.7286      0.00000
    107      10.0372      0.00000
    108      10.0378      0.00000
    109      10.0762      0.00000
    110      10.0767      0.00000
    111      10.3032      0.00000
    112      10.3037      0.00000
    113      10.4904      0.00000
    114      10.4914      0.00000
    115      10.7092      0.00000
    116      10.7115      0.00000
    117      10.8723      0.00000
    118      10.8806      0.00000
    119      11.0124      0.00000
    120      11.0164      0.00000
    121      11.2301      0.00000
    122      11.2358      0.00000
    123      11.4165      0.00000
    124      11.4488      0.00000
    125      11.6601      0.00000
    126      11.6788      0.00000
    127      11.8557      0.00000
    128      11.9444      0.00000


--------------------------------------------------------------------------------------------------------


 soft charge-density along one line, spin component           1
         0         1         2         3         4         5         6         7         8         9
 total charge-density along one line

 pseudopotential strength for first ion, spin component:           1
 12.577  21.163  -0.005   0.001   0.003  -0.010   0.001   0.006
 21.163  35.609  -0.009   0.001   0.006  -0.016   0.002   0.010
 -0.005  -0.009  -3.234   0.000   0.000  -5.794   0.000   0.000
  0.001   0.001   0.000  -3.234  -0.000   0.000  -5.793  -0.000
  0.003   0.006   0.000  -0.000  -3.234   0.000  -0.000  -5.794
 -0.010  -0.016  -5.794   0.000   0.000 -10.358   0.000   0.001
  0.001   0.002   0.000  -5.793  -0.000   0.000 -10.356  -0.000
  0.006   0.010   0.000  -0.000  -5.794   0.001  -0.000 -10.358
 total augmentation occupancy for first ion, spin component:           1
  7.356  -2.672   0.975  -0.096  -0.753  -0.463   0.046   0.358
 -2.672   1.081  -0.466   0.046   0.364   0.229  -0.023  -0.178
  0.975  -0.466   7.595  -0.274  -1.080  -2.686   0.116   0.470
 -0.096   0.046  -0.274   2.601   0.459   0.116  -0.612  -0.190
 -0.753   0.364  -1.080   0.459   7.042   0.470  -0.190  -2.443
 -0.463   0.229  -2.686   0.116   0.470   0.988  -0.049  -0.209
  0.046  -0.023   0.116  -0.612  -0.190  -0.049   0.150   0.077
  0.358  -0.178   0.470  -0.190  -2.443  -0.209   0.077   0.879


------------------------ aborting loop because EDIFF is reached ----------------------------------------


    FORLOC:  cpu time      0.0087: real time      0.0087
    FORNL :  cpu time      2.7386: real time      2.7397
    FORCOR:  cpu time      0.0924: real time      0.0924
    OFIELD:  cpu time      0.0025: real time      0.0030
 WARNING: Using user supplied parameters
     VDW_S8 = 1.682
     VDW_SR = 1.094
     because the xc functional is not supported. Required parameters not
     defined in the INCAR file will be replaced with PBE defaults ones.


 ---------------------------------------------------------------------------------------------

         DFTD3 V3.0 Rev 1        
 IVDW         = 11
 DF unknown   
 parameters
 VDW_S6       =    1.0000
 VDW_S8       =    1.6820
 VDW_SR       =    1.0940
 rs18     =    1.0000
 alpha6   =   14.0000
 alpha8   =   16.0000
 k1-k3    =   16.0000    1.3333   -4.0000
 VDW_RADIUS   =   50.2022 A
 VDW_CNRADIUS =   21.1671 A
 Edisp (eV)   -5.16388

 E6    (eV) :    -2.6505
 E8    (eV) :    -2.5133
 % E8        : 48.67
    FORVDW:  cpu time      0.7014: real time      0.7065

 VOLUME and BASIS-vectors are now :
 -----------------------------------------------------------------------------
  energy-cutoff  :     1000.00
  volume of cell :      463.39
      direct lattice vectors                 reciprocal lattice vectors
    11.938000000  0.000000000  0.000000000     0.083766125 -0.000000000  0.050133080
     0.000000000 12.376000000  0.000000000     0.000000000  0.080801551 -0.000000000
    -1.877100000  0.000000000  3.136400000     0.000000000  0.000000000  0.318836883

  length of vectors
    11.938000000 12.376000000  3.655203055     0.097622177  0.080801551  0.318836883


 FORCES acting on ions:
    Electron-Ion                     Ewald-Force                    Non-Local-Force
 -----------------------------------------------------------------------------------------------
   -.131E+02 -.158E+02 0.113E+01   0.110E+02 0.190E+02 -.148E+01   0.219E+01 -.337E+01 0.354E+00
   0.131E+02 0.158E+02 -.114E+01   -.110E+02 -.190E+02 0.148E+01   -.219E+01 0.337E+01 -.353E+00
   0.131E+02 -.158E+02 -.113E+01   -.110E+02 0.191E+02 0.148E+01   -.219E+01 -.337E+01 -.354E+00
   -.131E+02 0.158E+02 0.113E+01   0.110E+02 -.191E+02 -.148E+01   0.219E+01 0.337E+01 0.354E+00
   -.763E+02 0.508E+01 -.247E+02   0.841E+02 -.651E+01 0.255E+02   -.798E+01 0.149E+01 -.802E+00
   0.763E+02 -.508E+01 0.247E+02   -.841E+02 0.651E+01 -.255E+02   0.798E+01 -.149E+01 0.803E+00
   0.762E+02 0.508E+01 0.246E+02   -.841E+02 -.651E+01 -.254E+02   0.798E+01 0.149E+01 0.802E+00
   -.762E+02 -.508E+01 -.246E+02   0.841E+02 0.650E+01 0.254E+02   -.798E+01 -.149E+01 -.802E+00
   -.127E+03 0.938E+02 -.486E+02   0.130E+03 -.961E+02 0.490E+02   -.297E+01 0.208E+01 -.401E+00
   0.127E+03 -.939E+02 0.486E+02   -.130E+03 0.961E+02 -.490E+02   0.297E+01 -.208E+01 0.401E+00
   0.127E+03 0.938E+02 0.486E+02   -.130E+03 -.961E+02 -.490E+02   0.297E+01 0.208E+01 0.402E+00
   -.127E+03 -.938E+02 -.486E+02   0.130E+03 0.961E+02 0.490E+02   -.297E+01 -.208E+01 -.402E+00
   -.155E+03 0.287E+02 -.412E+02   0.161E+03 -.358E+02 0.420E+02   -.669E+01 0.735E+01 -.839E+00
   0.155E+03 -.287E+02 0.412E+02   -.161E+03 0.358E+02 -.420E+02   0.669E+01 -.735E+01 0.839E+00
   0.155E+03 0.286E+02 0.412E+02   -.161E+03 -.358E+02 -.420E+02   0.669E+01 0.735E+01 0.838E+00
   -.155E+03 -.286E+02 -.412E+02   0.161E+03 0.358E+02 0.420E+02   -.669E+01 -.735E+01 -.838E+00
   -.492E+02 0.575E+01 -.819E+01   0.552E+02 -.444E+01 0.868E+01   -.616E+01 -.134E+01 -.496E+00
   0.492E+02 -.575E+01 0.819E+01   -.552E+02 0.444E+01 -.868E+01   0.616E+01 0.134E+01 0.496E+00
   0.492E+02 0.575E+01 0.819E+01   -.552E+02 -.444E+01 -.867E+01   0.616E+01 -.134E+01 0.496E+00
   -.492E+02 -.575E+01 -.819E+01   0.552E+02 0.444E+01 0.867E+01   -.616E+01 0.134E+01 -.496E+00
   -.216E+02 -.459E+02 0.241E-01   0.243E+02 0.523E+02 -.309E+00   -.275E+01 -.649E+01 0.285E+00
   0.216E+02 0.459E+02 -.237E-01   -.243E+02 -.523E+02 0.308E+00   0.275E+01 0.649E+01 -.285E+00
   0.216E+02 -.459E+02 -.310E-01   -.243E+02 0.523E+02 0.315E+00   0.275E+01 -.649E+01 -.285E+00
   -.216E+02 0.459E+02 0.308E-01   0.243E+02 -.523E+02 -.315E+00   -.275E+01 0.649E+01 0.285E+00
   0.536E+02 -.233E+01 0.776E+01   -.605E+02 0.164E+01 -.832E+01   0.696E+01 0.704E+00 0.571E+00
   -.536E+02 0.233E+01 -.776E+01   0.605E+02 -.164E+01 0.832E+01   -.696E+01 -.703E+00 -.571E+00
   -.536E+02 -.233E+01 -.776E+01   0.605E+02 0.164E+01 0.832E+01   -.696E+01 0.703E+00 -.571E+00
   0.536E+02 0.234E+01 0.776E+01   -.605E+02 -.165E+01 -.832E+01   0.696E+01 -.703E+00 0.571E+00
   -.429E+02 0.304E+02 -.118E+02   0.465E+02 -.352E+02 0.122E+02   -.367E+01 0.490E+01 -.406E+00
   0.429E+02 -.304E+02 0.118E+02   -.465E+02 0.352E+02 -.122E+02   0.367E+01 -.490E+01 0.406E+00
   0.429E+02 0.304E+02 0.118E+02   -.465E+02 -.352E+02 -.122E+02   0.367E+01 0.490E+01 0.407E+00
   -.429E+02 -.304E+02 -.118E+02   0.465E+02 0.352E+02 0.122E+02   -.367E+01 -.490E+01 -.407E+00
   -.923E+02 -.961E+02 -.239E+02   0.951E+02 0.103E+03 0.246E+02   -.269E+01 -.630E+01 -.728E+00
   0.923E+02 0.961E+02 0.239E+02   -.951E+02 -.103E+03 -.246E+02   0.269E+01 0.630E+01 0.728E+00
   0.923E+02 -.962E+02 0.239E+02   -.951E+02 0.103E+03 -.246E+02   0.269E+01 -.629E+01 0.731E+00
   -.923E+02 0.962E+02 -.239E+02   0.951E+02 -.103E+03 0.246E+02   -.269E+01 0.629E+01 -.730E+00
   0.876E+02 0.178E+00 0.989E+01   -.929E+02 -.205E+01 -.105E+02   0.515E+01 0.190E+01 0.614E+00
   -.876E+02 -.178E+00 -.989E+01   0.929E+02 0.205E+01 0.105E+02   -.515E+01 -.190E+01 -.614E+00
   -.876E+02 0.151E+00 -.991E+01   0.929E+02 -.203E+01 0.105E+02   -.515E+01 0.189E+01 -.615E+00
   0.876E+02 -.151E+00 0.991E+01   -.929E+02 0.203E+01 -.105E+02   0.515E+01 -.189E+01 0.614E+00
   0.149E+03 -.241E+03 0.279E+02   -.180E+03 0.282E+03 -.323E+02   0.314E+02 -.411E+02 0.447E+01
   -.149E+03 0.241E+03 -.278E+02   0.180E+03 -.282E+03 0.323E+02   -.314E+02 0.411E+02 -.447E+01
   -.149E+03 -.241E+03 -.279E+02   0.180E+03 0.282E+03 0.324E+02   -.314E+02 -.411E+02 -.448E+01
   0.149E+03 0.241E+03 0.279E+02   -.180E+03 -.282E+03 -.324E+02   0.314E+02 0.411E+02 0.448E+01
   0.325E+02 0.192E+03 -.216E+02   -.525E+02 -.234E+03 0.206E+02   0.200E+02 0.416E+02 0.956E+00
   -.325E+02 -.192E+03 0.216E+02   0.525E+02 0.234E+03 -.206E+02   -.200E+02 -.416E+02 -.957E+00
   -.325E+02 0.192E+03 0.216E+02   0.525E+02 -.234E+03 -.207E+02   -.200E+02 0.416E+02 -.945E+00
   0.325E+02 -.192E+03 -.216E+02   -.525E+02 0.234E+03 0.207E+02   0.200E+02 -.416E+02 0.944E+00
 -----------------------------------------------------------------------------------------------
   -.241E-03 0.665E-03 0.146E-02   0.199E-12 -.341E-12 -.675E-13   0.241E-03 -.670E-03 -.146E-02


 POSITION                                       TOTAL-FORCE (eV/Angst)
 -----------------------------------------------------------------------------------
      1.78226      2.59430      0.00574        -0.061880      0.074122     -0.021925
      8.27863      9.78170      3.13064         0.061868     -0.074243      0.021886
      2.30948      8.78218      3.13070         0.061817      0.075320      0.022215
      7.75142      3.59382      0.00570        -0.061986     -0.075238     -0.022240
      2.08435      0.14278      0.11204         0.023533     -0.057285     -0.013001
      7.97654     12.23322      3.02437        -0.023566      0.057328      0.013056
      2.00753      6.33070      3.02422        -0.022924     -0.059223      0.012480
      8.05335      6.04530      0.11219         0.023168      0.058686     -0.012267
      3.49428      0.34926      0.25304         0.196520     -0.139062      0.028052
      6.56661     12.02674      2.88336        -0.196418      0.139111     -0.028073
      0.59760      6.53709      2.88325        -0.197549     -0.140060     -0.028102
      9.46329      5.83892      0.25316         0.197398      0.140135      0.027968
      3.97709      1.62332      0.25591         0.280930     -0.035008      0.045912
      6.08380     10.75269      2.88048        -0.280967      0.034962     -0.045897
      0.11467      7.81110      2.88041        -0.279887     -0.035062     -0.045919
      9.94622      4.56492      0.25599         0.279922      0.035028      0.045959
      5.03602      1.86087      0.34067        -0.122835     -0.029537     -0.005071
      5.02487     10.51515      2.79571         0.122868      0.029526      0.005080
     -0.94427      8.04859      2.79567         0.122703     -0.029483      0.004942
     11.00515      4.32742      0.34072        -0.122657      0.029481     -0.004936
      3.55800      3.66469      0.09184        -0.028042     -0.081071     -0.001849
      6.50287      8.71132      3.04454         0.028057      0.081000      0.001854
      0.53370      9.85246      3.04449         0.028169     -0.080711      0.001742
      9.52720      2.52354      0.09191        -0.028159      0.080755     -0.001751
     -1.59771      1.18094      3.05920         0.099770      0.022214      0.010305
     11.65860     11.19504      0.07721        -0.099896     -0.022195     -0.010314
      5.68955      7.36893      0.07722        -0.099697      0.022137     -0.010168
      4.37134      5.00706      3.05919         0.099668     -0.022190      0.010177
      4.14803     11.86044      0.33012        -0.089509      0.104151     -0.008087
      5.91287      0.51557      2.80629         0.089466     -0.104115      0.008084
     -0.05614      5.67222      2.80614         0.090248      0.104727      0.008202
     10.11702      6.70379      0.33027        -0.090231     -0.104713     -0.008180
      3.15416      2.70636      0.13227         0.131707      0.228644     -0.004950
      6.90672      9.66964      3.00411        -0.131731     -0.228566      0.004956
      0.93756      8.89415      3.00405        -0.131824      0.229222      0.005292
      9.12334      3.48185      0.13234         0.131830     -0.229308     -0.005291
      1.31181      1.29183      0.00667        -0.265445     -0.026515     -0.028423
      8.74908     11.08416      3.12974         0.265632      0.026523      0.028417
      2.78002      7.47976      3.12973         0.265413     -0.026502      0.028321
      7.28087      4.89624      0.00668        -0.265290      0.026743     -0.028350
     -0.84490      3.56669      3.03878        -0.105331      0.140180     -0.028765
     10.90577      8.80930      0.09758         0.105313     -0.140072      0.028788
      4.93652      9.75464      0.09784         0.105178      0.139601      0.028479
      5.12438      2.62136      3.03856        -0.105136     -0.139634     -0.028476
      1.51190     11.39754      0.07575        -0.067702     -0.162836     -0.013648
      8.54900      0.97845      3.06068         0.067674      0.162758      0.013626
      2.58006      5.20946      3.06030         0.067076     -0.161322      0.014026
      7.48083      7.16654      0.07614        -0.067265      0.161595     -0.014136
 -----------------------------------------------------------------------------------
    total drift:                               -0.000001     -0.000005     -0.000000


--------------------------------------------------------------------------------------------------------



  FREE ENERGIE OF THE ION-ELECTRON SYSTEM (eV)
  ---------------------------------------------------
  free  energy   TOTEN  =      -319.87051206 eV

  energy  without entropy=     -319.87051206  energy(sigma->0) =     -319.87051206



--------------------------------------------------------------------------------------------------------


    POTLOK:  cpu time      0.1061: real time      0.1061


--------------------------------------------------------------------------------------------------------


 stress matrix after NEB project (eV)
     -5.36303     -0.00005      0.28680
     -0.00005     -5.03541      0.00003
      0.28680      0.00003     -9.65234
  FORCES: max atom, RMS     0.286830    0.185335
  FORCE total and by dimension    1.284036    0.280967
  Stress total and by dimension   12.142884    9.652342
     LOOP+:  cpu time    374.0354: real time    374.5858
    4ORBIT:  cpu time      0.0000: real time      0.0000

 total amount of memory used by VASP MPI-rank0   210945. kBytes
=======================================================================

   base      :      30000. kBytes
   nonl-proj :     133070. kBytes
   fftplans  :      10390. kBytes
   grid      :      14534. kBytes
   one-center:         73. kBytes
   wavefun   :      22878. kBytes

  
  
 General timing and accounting informations for this job:
 ========================================================
  
                  Total CPU time used (sec):      411.338
                            User time (sec):      408.124
                          System time (sec):        3.214
                         Elapsed time (sec):      416.336
  
                   Maximum memory used (kb):      512456.
                   Average memory used (kb):          N/A
  
                          Minor page faults:        80574
                          Major page faults:         1186
                 Voluntary context switches:         6037
