 vasp.6.4.1 05Apr23 (build Jun  6 2023 14:36:51) complex                         
 executed on        HPECrayEX_GCC date 2024.08.20  14:51:23
 running  256 mpi-ranks, with    1 threads/rank, on    2 nodes
 distrk:  each k-point on  256 cores,    1 groups
 distr:  one band on NCORE=   2 cores,  128 groups


--------------------------------------------------------------------------------------------------------


 INCAR:
   ALGO = Conjugate
   NCORE = 2
   PREC = Accurate
   EDIFF = 1E-7
   ENCUT = 1000
   ISMEAR = 0
   SIGMA = 0.01
   ISIF = 0
   SYMPREC = 1E-7
   IVDW = 11
   LWAVE = .FALSE.
   LCHARGE = .FALSE.
   LWAVE = .FALSE.
   LCHARGE = .FALSE.

 POTCAR:    PAW_PBE C_h 06Feb2004                 
 POTCAR:    PAW_PBE H_h 06Feb2004                 
 POTCAR:    PAW_PBE N_h 06Feb2004                 
 POTCAR:    PAW_PBE O_h 06Feb2004                 
 POTCAR:    PAW_PBE C_h 06Feb2004                 
   VRHFIN =C: s2p2                                                                                  
   LEXCH  = PE                                                                                      
   EATOM  =   147.1560 eV,   10.8157 Ry                                                             
                                                                                                    
   TITEL  = PAW_PBE C_h 06Feb2004                                                                   
   LULTRA =        F    use ultrasoft PP ?                                                          
   IUNSCR =        1    unscreen: 0-lin 1-nonlin 2-no                                               
   RPACOR =    0.800    partial core radius                                                         
   POMASS =   12.011; ZVAL   =    4.000    mass and valenz                                          
   RCORE  =    1.100    outmost cutoff radius                                                       
   RWIGS  =    1.630; RWIGS  =    0.863    wigner-seitz radius (au A)                               
   ENMAX  =  700.000; ENMIN  =  500.000 eV                                                          
   ICORE  =        2    local potential                                                             
   LCOR   =        T    correct aug charges                                                         
   LPAW   =        T    paw PP                                                                      
   EAUG   =  946.768                                                                                
   DEXC   =    0.000                                                                                
   RMAX   =    1.128    core radius for proj-oper                                                   
   RAUG   =    1.300    factor for augmentation sphere                                              
   RDEP   =    1.162    radius for radial grids                                                     
   RDEPT  =    1.088    core radius for aug-charge                                                  
                                                                                                    
   Atomic configuration                                                                             
    4 entries                                                                                       
     n  l   j            E        occ.                                                              
     1  0  0.50      -273.3789   2.0000                                                             
     2  0  0.50       -13.7508   2.0000                                                             
     2  1  0.50        -5.2854   2.0000                                                             
     3  2  1.50        -5.4423   0.0000                                                             
   Description                                                                                      
     l       E           TYP  RCUT    TYP  RCUT                                                     
     0    -13.7508458     23  1.100                                                                 
     0     -8.2022199     23  1.100                                                                 
     1     -5.2854383     23  1.100                                                                 
     1      1.1560700     23  1.100                                                                 
     2     -5.4423304      7  1.100                                                                 
  local pseudopotential read in
  partial core-charges read in
  partial kinetic energy density read in
  atomic valenz-charges read in
  non local Contribution for L=           0  read in
    real space projection operators read in
  non local Contribution for L=           0  read in
    real space projection operators read in
  non local Contribution for L=           1  read in
    real space projection operators read in
  non local Contribution for L=           1  read in
    real space projection operators read in
    PAW grid and wavefunctions read in

   number of l-projection  operators is LMAX  =           4
   number of lm-projection operators is LMMAX =           8

 POTCAR:    PAW_PBE H_h 06Feb2004                 
   VRHFIN =H: ultrasoft test                                                                        
   LEXCH  = PE                                                                                      
   EATOM  =    12.4884 eV,    0.9179 Ry                                                             
                                                                                                    
   TITEL  = PAW_PBE H_h 06Feb2004                                                                   
   LULTRA =        F    use ultrasoft PP ?                                                          
   IUNSCR =        0    unscreen: 0-lin 1-nonlin 2-no                                               
   RPACOR =    0.000    partial core radius                                                         
   POMASS =    1.000; ZVAL   =    1.000    mass and valenz                                          
   RCORE  =    0.800    outmost cutoff radius                                                       
   RWIGS  =    0.700; RWIGS  =    0.370    wigner-seitz radius (au A)                               
   ENMAX  =  700.000; ENMIN  =  350.000 eV                                                          
   RCLOC  =    0.701    cutoff for local pot                                                        
   LCOR   =        T    correct aug charges                                                         
   LPAW   =        T    paw PP                                                                      
   EAUG   = 1000.000                                                                                
   RMAX   =    0.819    core radius for proj-oper                                                   
   RAUG   =    1.000    factor for augmentation sphere                                              
   RDEP   =    0.817    radius for radial grids                                                     
   RDEPT  =    0.817    core radius for aug-charge                                                  
                                                                                                    
   Atomic configuration                                                                             
    2 entries                                                                                       
     n  l   j            E        occ.                                                              
     1  0  0.50        -6.4927   1.0000                                                             
     2  1  0.50        -3.4015   0.0000                                                             
   Description                                                                                      
     l       E           TYP  RCUT    TYP  RCUT                                                     
     0     -6.4927493     23  0.800                                                                 
     0      6.8029130     23  0.800                                                                 
     1     -6.8029130     23  0.800                                                                 
  local pseudopotential read in
  atomic valenz-charges read in
  non local Contribution for L=           0  read in
    real space projection operators read in
  non local Contribution for L=           0  read in
    real space projection operators read in
  non local Contribution for L=           1  read in
    real space projection operators read in
    PAW grid and wavefunctions read in

   number of l-projection  operators is LMAX  =           3
   number of lm-projection operators is LMMAX =           5

 POTCAR:    PAW_PBE N_h 06Feb2004                 
   VRHFIN =N: s2p3                                                                                  
   LEXCH  = PE                                                                                      
   EATOM  =   264.5486 eV,   19.4438 Ry                                                             
                                                                                                    
   TITEL  = PAW_PBE N_h 06Feb2004                                                                   
   LULTRA =        F    use ultrasoft PP ?                                                          
   IUNSCR =        1    unscreen: 0-lin 1-nonlin 2-no                                               
   RPACOR =    0.800    partial core radius                                                         
   POMASS =   14.001; ZVAL   =    5.000    mass and valenz                                          
   RCORE  =    1.100    outmost cutoff radius                                                       
   RWIGS  =    1.480; RWIGS  =    0.783    wigner-seitz radius (au A)                               
   ENMAX  =  700.000; ENMIN  =  500.000 eV                                                          
   ICORE  =        2    local potential                                                             
   LCOR   =        T    correct aug charges                                                         
   LPAW   =        T    paw PP                                                                      
   EAUG   =  904.640                                                                                
   DEXC   =    0.000                                                                                
   RMAX   =    1.127    core radius for proj-oper                                                   
   RAUG   =    1.300    factor for augmentation sphere                                              
   RDEP   =    1.115    radius for radial grids                                                     
   RDEPT  =    1.106    core radius for aug-charge                                                  
                                                                                                    
   Atomic configuration                                                                             
    4 entries                                                                                       
     n  l   j            E        occ.                                                              
     1  0  0.50      -384.7179   2.0000                                                             
     2  0  0.50       -18.5828   2.0000                                                             
     2  1  0.50        -7.0898   3.0000                                                             
     3  2  1.50        -6.8029   0.0000                                                             
   Description                                                                                      
     l       E           TYP  RCUT    TYP  RCUT                                                     
     0    -18.5828117     23  1.100                                                                 
     0    -15.0750597     23  1.100                                                                 
     1     -7.0897851     23  1.100                                                                 
     1     -1.9663412     23  1.100                                                                 
     2     -6.8029130      7  1.100                                                                 
  local pseudopotential read in
  partial core-charges read in
  partial kinetic energy density read in
  kinetic energy density of atom read in
  atomic valenz-charges read in
  non local Contribution for L=           0  read in
    real space projection operators read in
  non local Contribution for L=           0  read in
    real space projection operators read in
  non local Contribution for L=           1  read in
    real space projection operators read in
  non local Contribution for L=           1  read in
    real space projection operators read in
    PAW grid and wavefunctions read in

   number of l-projection  operators is LMAX  =           4
   number of lm-projection operators is LMMAX =           8

 POTCAR:    PAW_PBE O_h 06Feb2004                 
   VRHFIN =O: s2p4                                                                                  
   LEXCH  = PE                                                                                      
   EATOM  =   432.3788 eV,   31.7789 Ry                                                             
                                                                                                    
   TITEL  = PAW_PBE O_h 06Feb2004                                                                   
   LULTRA =        F    use ultrasoft PP ?                                                          
   IUNSCR =        1    unscreen: 0-lin 1-nonlin 2-no                                               
   RPACOR =    0.800    partial core radius                                                         
   POMASS =   16.000; ZVAL   =    6.000    mass and valenz                                          
   RCORE  =    1.100    outmost cutoff radius                                                       
   RWIGS  =    1.400; RWIGS  =    0.741    wigner-seitz radius (au A)                               
   ENMAX  =  700.000; ENMIN  =  500.000 eV                                                          
   ICORE  =        2    local potential                                                             
   LCOR   =        T    correct aug charges                                                         
   LPAW   =        T    paw PP                                                                      
   EAUG   =  888.804                                                                                
   DEXC   =    0.000                                                                                
   RMAX   =    1.128    core radius for proj-oper                                                   
   RAUG   =    1.300    factor for augmentation sphere                                              
   RDEP   =    1.125    radius for radial grids                                                     
   RDEPT  =    1.088    core radius for aug-charge                                                  
                                                                                                    
   Atomic configuration                                                                             
    4 entries                                                                                       
     n  l   j            E        occ.                                                              
     1  0  0.50      -514.6923   2.0000                                                             
     2  0  0.50       -23.9615   2.0000                                                             
     2  1  0.50        -9.0305   4.0000                                                             
     3  2  1.50        -9.5241   0.0000                                                             
   Description                                                                                      
     l       E           TYP  RCUT    TYP  RCUT                                                     
     0    -23.9615319     23  1.100                                                                 
     0    -25.3221145     23  1.100                                                                 
     1     -9.0304911     23  1.100                                                                 
     1     -5.4802209     23  1.100                                                                 
     2     -9.5240782      7  1.100                                                                 
  local pseudopotential read in
  partial core-charges read in
  partial kinetic energy density read in
  atomic valenz-charges read in
  non local Contribution for L=           0  read in
    real space projection operators read in
  non local Contribution for L=           0  read in
    real space projection operators read in
  non local Contribution for L=           1  read in
    real space projection operators read in
  non local Contribution for L=           1  read in
    real space projection operators read in
    PAW grid and wavefunctions read in

   number of l-projection  operators is LMAX  =           4
   number of lm-projection operators is LMMAX =           8

 -----------------------------------------------------------------------------
|                                                                             |
|               ----> ADVICE to this user running VASP <----                  |
|                                                                             |
|     You have a (more or less) 'large supercell' and for larger cells it     |
|     might be more efficient to use real-space projection operators.         |
|     Therefore, try LREAL= Auto in the INCAR file.                           |
|     Mind: For very accurate calculation, you might also keep the            |
|     reciprocal projection scheme (i.e. LREAL=.FALSE.).                      |
|                                                                             |
 -----------------------------------------------------------------------------

  PAW_PBE C_h 06Feb2004                 :
 energy of atom  1       EATOM= -147.1560
 kinetic energy error for atom=    0.0031 (will be added to EATOM!!)
  PAW_PBE H_h 06Feb2004                 :
 energy of atom  2       EATOM=  -12.4884
 kinetic energy error for atom=    0.0006 (will be added to EATOM!!)
  PAW_PBE N_h 06Feb2004                 :
 energy of atom  3       EATOM= -264.5486
 kinetic energy error for atom=    0.0081 (will be added to EATOM!!)
  PAW_PBE O_h 06Feb2004                 :
 energy of atom  4       EATOM= -432.3788
 kinetic energy error for atom=    0.0171 (will be added to EATOM!!)


 POSCAR:  C  H  N  O
  positions in cartesian coordinates
  No initial velocities read in
 exchange correlation table for  LEXCH =        8
   RHO(1)=    0.500       N(1)  =     2000
   RHO(2)=  100.500       N(2)  =     4000

 VTST: version 4.1, (05/19/21)

 CHAIN: initializing optimizer
 
 OPT: Using VASP Dynamics algorithm
 CHAIN: Read ICHAIN            0

 POSCAR:  C  H  N  O
  positions in cartesian coordinates
  No initial velocities read in



--------------------------------------------------------------------------------------------------------


 ion  position               nearest neighbor table
   1  0.150  0.210  0.002-  41 1.23  33 1.38  37 1.38
   2  0.850  0.790  0.998-  42 1.23  34 1.38  38 1.38
   3  0.350  0.710  0.998-  43 1.23  35 1.38  39 1.38
   4  0.650  0.290  0.002-  44 1.23  36 1.38  40 1.38
   5  0.180  0.012  0.036-  45 1.26  37 1.39   9 1.43
   6  0.820  0.988  0.964-  46 1.26  38 1.39  10 1.43
   7  0.320  0.512  0.964-  47 1.26  39 1.39  11 1.43
   8  0.680  0.488  0.036-  48 1.26  40 1.39  12 1.43
   9  0.305  0.028  0.081-  29 1.09  13 1.36   5 1.43
  10  0.695  0.972  0.919-  30 1.09  14 1.36   6 1.43
  11  0.195  0.528  0.919-  31 1.09  15 1.36   7 1.43
  12  0.805  0.472  0.081-  32 1.09  16 1.36   8 1.43
  13  0.346  0.131  0.082-  17 1.09   9 1.36  33 1.37
  14  0.654  0.869  0.918-  18 1.09  10 1.36  34 1.37
  15  0.154  0.631  0.918-  19 1.09  11 1.36  35 1.37
  16  0.846  0.369  0.082-  20 1.09  12 1.36  36 1.37
  17  0.439  0.150  0.109-  13 1.09
  18  0.561  0.850  0.891-  14 1.09
  19  0.061  0.650  0.891-  15 1.09
  20  0.939  0.350  0.109-  16 1.09
  21  0.303  0.296  0.029-  33 1.04
  22  0.697  0.704  0.971-  34 1.04
  23  0.197  0.796  0.971-  35 1.04
  24  0.803  0.204  0.029-  36 1.04
  25  0.020  0.095  0.975-  37 1.04
  26  0.980  0.905  0.025-  38 1.04
  27  0.480  0.595  0.025-  39 1.04
  28  0.520  0.405  0.975-  40 1.04
  29  0.364  0.958  0.105-   9 1.09
  30  0.636  0.042  0.895-  10 1.09
  31  0.136  0.458  0.895-  11 1.09
  32  0.864  0.542  0.105-  12 1.09
  33  0.271  0.219  0.042-  21 1.04  13 1.37   1 1.38
  34  0.729  0.781  0.958-  22 1.04  14 1.37   2 1.38
  35  0.229  0.719  0.958-  23 1.04  15 1.37   3 1.38
  36  0.771  0.281  0.042-  24 1.04  16 1.37   4 1.38
  37  0.110  0.104  0.002-  25 1.04   1 1.38   5 1.39
  38  0.890  0.896  0.998-  26 1.04   2 1.38   6 1.39
  39  0.390  0.604  0.998-  27 1.04   3 1.38   7 1.39
  40  0.610  0.396  0.002-  28 1.04   4 1.38   8 1.39
  41  0.082  0.288  0.969-   1 1.23
  42  0.918  0.712  0.031-   2 1.23
  43  0.418  0.788  0.031-   3 1.23
  44  0.582  0.212  0.969-   4 1.23
  45  0.130  0.921  0.024-   5 1.26
  46  0.870  0.079  0.976-   6 1.26
  47  0.370  0.421  0.976-   7 1.26
  48  0.630  0.579  0.024-   8 1.26

  LATTYP: Found a simple monoclinic cell.
 ALAT       =     3.6552030546
 B/A-ratio  =     3.3858584093
 C/A-ratio  =     2.8209883382
 COS(beta)  =    -0.1144127651
  
  Lattice vectors:
  
 A1 = (  -1.8771000000,   0.0000000000,   3.1364000000)
 A2 = (   0.0000000000,  12.3760000000,   0.0000000000)
 A3 = (  -8.1838000000,   0.0000000000,  -6.2728000000)


Analysis of symmetry for initial positions (statically):
=====================================================================
 Subroutine PRICEL returns:
 Original cell was already a primitive cell.
 

 Routine SETGRP: Setting up the symmetry group for a 
 simple monoclinic supercell.


 Subroutine GETGRP returns: Found  1 space group operations
 (whereof  1 operations were pure point group operations)
 out of a pool of  4 trial point group operations.


The static configuration has the point symmetry C_1 .


Analysis of symmetry for dynamics (positions and initial velocities):
=====================================================================
 Subroutine PRICEL returns:
 Original cell was already a primitive cell.
 

 Routine SETGRP: Setting up the symmetry group for a 
 simple monoclinic supercell.


 Subroutine GETGRP returns: Found  1 space group operations
 (whereof  1 operations were pure point group operations)
 out of a pool of  4 trial point group operations.


The dynamic configuration has the point symmetry C_1 .


 Subroutine INISYM returns: Found  1 space group operations
 (whereof  1 operations are pure point group operations),
 and found     1 'primitive' translations


----------------------------------------------------------------------------------------

                                     Primitive cell                                     

  volume of cell :     463.3864

  direct lattice vectors                    reciprocal lattice vectors
    11.938000000  0.000000000  0.000000000     0.083766125 -0.000000000  0.050133080
     0.000000000 12.376000000  0.000000000     0.000000000  0.080801551 -0.000000000
    -1.877100000  0.000000000  3.136400000     0.000000000  0.000000000  0.318836883

  length of vectors
    11.938000000 12.376000000  3.655203055     0.097622177  0.080801551  0.318836883

  position of ions in fractional coordinates (direct lattice)
     0.149580618  0.209623269  0.001831121
     0.850417213  0.790376539  0.998163511
     0.350407635  0.709613621  0.998183581
     0.649592224  0.290386168  0.001816419
     0.180215063  0.011536781  0.035721859
     0.819785039  0.988463219  0.964281041
     0.319776839  0.511530666  0.964233478
     0.680221971  0.488469932  0.035769177
     0.305387829  0.028221002  0.080678025
     0.694611805  0.971779533  0.919322750
     0.194604640  0.528206891  0.919286067
     0.805394751  0.471793659  0.080718026
     0.345974732  0.131166833  0.081593880
     0.654023657  0.868834041  0.918401933
     0.154009015  0.631148610  0.918379852
     0.845989874  0.368852240  0.081618867
     0.438926475  0.150361137  0.108619284
     0.561071430  0.849640358  0.891374454
     0.061058203  0.650338574  0.891363696
     0.938940442  0.349662584  0.108633730
     0.302644485  0.296112538  0.029281946
     0.697352583  0.703888455  0.970712028
     0.197335818  0.796094125  0.970695505
     0.802664167  0.203906340  0.029304941
     0.019533000  0.095422181  0.975385415
     0.980467000  0.904576760  0.024617953
     0.480462911  0.595421316  0.024621106
     0.519536592  0.404578259  0.975381500
     0.364014306  0.958341714  0.105253170
     0.635986132  0.041659169  0.894748535
     0.135978130  0.458323922  0.894701106
     0.864020770  0.541676745  0.105301313
     0.270843352  0.218678168  0.042173240
     0.729154218  0.781322279  0.957819920
     0.229138066  0.718661336  0.957802351
     0.770861298  0.281339143  0.042195329
     0.110219802  0.104381911  0.002125776
     0.889779634  0.895617686  0.997876395
     0.389774022  0.604375984  0.997871781
     0.610225229  0.395623594  0.002129859
     0.081569843  0.288193772  0.968875937
     0.918426357  0.711805298  0.031111810
     0.418418594  0.788189720  0.031196117
     0.581581372  0.211809991  0.968804490
     0.130443513  0.920939270  0.024151366
     0.869557570  0.079060636  0.975856560
     0.369543505  0.420932320  0.975736545
     0.630456776  0.579067681  0.024275675

  ion indices of the primitive-cell ions
   primitive index   ion index
                 1           1
                 2           2
                 3           3
                 4           4
                 5           5
                 6           6
                 7           7
                 8           8
                 9           9
                10          10
                11          11
                12          12
                13          13
                14          14
                15          15
                16          16
                17          17
                18          18
                19          19
                20          20
                21          21
                22          22
                23          23
                24          24
                25          25
                26          26
                27          27
                28          28
                29          29
                30          30
                31          31
                32          32
                33          33
                34          34
                35          35
                36          36
                37          37
                38          38
                39          39
                40          40
                41          41
                42          42
                43          43
                44          44
                45          45
                46          46
                47          47
                48          48

----------------------------------------------------------------------------------------



 KPOINTS: auto                                    

Automatic generation of k-mesh.
 Grid dimensions read from file:
 generate k-points for:    3    2    9

 Generating k-lattice:

  Cartesian coordinates                     Fractional coordinates (reciprocal lattice)
     0.027922042 -0.000000000  0.016711027     0.333333333  0.000000000  0.000000000
     0.000000000  0.040400776 -0.000000000     0.000000000  0.500000000  0.000000000
     0.000000000  0.000000000  0.035426320     0.000000000  0.000000000  0.111111111

  Length of vectors
     0.032540726  0.040400776  0.035426320

  Shift w.r.t. Gamma in fractional coordinates (k-lattice)
     0.000000000  0.000000000  0.000000000

 
 Subroutine IBZKPT returns following result:
 ===========================================
 
 Found     28 irreducible k-points:
 
 Following reciprocal coordinates:
            Coordinates               Weight
  0.000000  0.000000  0.000000      1.000000
  0.333333  0.000000  0.000000      2.000000
  0.000000  0.500000  0.000000      1.000000
  0.333333  0.500000  0.000000      2.000000
  0.000000  0.000000  0.111111      2.000000
  0.333333  0.000000  0.111111      2.000000
 -0.333333  0.000000  0.111111      2.000000
  0.000000  0.500000  0.111111      2.000000
  0.333333  0.500000  0.111111      2.000000
 -0.333333  0.500000  0.111111      2.000000
  0.000000  0.000000  0.222222      2.000000
  0.333333  0.000000  0.222222      2.000000
 -0.333333  0.000000  0.222222      2.000000
  0.000000  0.500000  0.222222      2.000000
  0.333333  0.500000  0.222222      2.000000
 -0.333333  0.500000  0.222222      2.000000
  0.000000  0.000000  0.333333      2.000000
  0.333333  0.000000  0.333333      2.000000
 -0.333333  0.000000  0.333333      2.000000
  0.000000  0.500000  0.333333      2.000000
  0.333333  0.500000  0.333333      2.000000
 -0.333333  0.500000  0.333333      2.000000
  0.000000  0.000000  0.444444      2.000000
  0.333333  0.000000  0.444444      2.000000
 -0.333333  0.000000  0.444444      2.000000
  0.000000  0.500000  0.444444      2.000000
  0.333333  0.500000  0.444444      2.000000
 -0.333333  0.500000  0.444444      2.000000
 
 Following cartesian coordinates:
            Coordinates               Weight
  0.000000  0.000000  0.000000      1.000000
  0.027922  0.000000  0.016711      2.000000
  0.000000  0.040401  0.000000      1.000000
  0.027922  0.040401  0.016711      2.000000
  0.000000  0.000000  0.035426      2.000000
  0.027922  0.000000  0.052137      2.000000
 -0.027922  0.000000  0.018715      2.000000
  0.000000  0.040401  0.035426      2.000000
  0.027922  0.040401  0.052137      2.000000
 -0.027922  0.040401  0.018715      2.000000
  0.000000  0.000000  0.070853      2.000000
  0.027922  0.000000  0.087564      2.000000
 -0.027922  0.000000  0.054142      2.000000
  0.000000  0.040401  0.070853      2.000000
  0.027922  0.040401  0.087564      2.000000
 -0.027922  0.040401  0.054142      2.000000
  0.000000  0.000000  0.106279      2.000000
  0.027922  0.000000  0.122990      2.000000
 -0.027922  0.000000  0.089568      2.000000
  0.000000  0.040401  0.106279      2.000000
  0.027922  0.040401  0.122990      2.000000
 -0.027922  0.040401  0.089568      2.000000
  0.000000  0.000000  0.141705      2.000000
  0.027922  0.000000  0.158416      2.000000
 -0.027922  0.000000  0.124994      2.000000
  0.000000  0.040401  0.141705      2.000000
  0.027922  0.040401  0.158416      2.000000
 -0.027922  0.040401  0.124994      2.000000
 


--------------------------------------------------------------------------------------------------------




 Dimension of arrays:
   k-points           NKPTS =     28   k-points in BZ     NKDIM =     28   number of bands    NBANDS=    128
   number of dos      NEDOS =    301   number of ions     NIONS =     48
   non local maximal  LDIM  =      4   non local SUM 2l+1 LMDIM =      8
   total plane-waves  NPLWV = 645120
   max r-space proj   IRMAX =      1   max aug-charges    IRDMAX=  10352
   dimension x,y,z NGX =   126 NGY =  128 NGZ =   40
   dimension x,y,z NGXF=   252 NGYF=  256 NGZF=   80
   support grid    NGXF=   252 NGYF=  256 NGZF=   80
   ions per type =              16  16   8   8
   NGX,Y,Z   is equivalent  to a cutoff of  17.55, 17.19, 18.19 a.u.
   NGXF,Y,Z  is equivalent  to a cutoff of  35.09, 34.39, 36.39 a.u.

 SYSTEM =  unknown system                          
 POSCAR =   C  H  N  O                             

 Startparameter for this run:
   NWRITE =      2    write-flag & timer
   PREC   = accura    normal or accurate (medium, high low for compatibility)
   ISTART =      0    job   : 0-new  1-cont  2-samecut
   ICHARG =      2    charge: 1-file 2-atom 10-const
   ISPIN  =      1    spin polarized calculation?
   LNONCOLLINEAR =      F non collinear calculations
   LSORBIT =      F    spin-orbit coupling
   INIWAV =      1    electr: 0-lowe 1-rand  2-diag
   LASPH  =      F    aspherical Exc in radial PAW
 Electronic Relaxation 1
   ENCUT  = 1000.0 eV  73.50 Ry    8.57 a.u.  30.78 31.91  9.42*2*pi/ulx,y,z
   ENINI  = 1000.0     initial cutoff
   ENAUG  = 1000.0 eV  augmentation charge cutoff
   NELM   =     60;   NELMIN=  2; NELMDL= -5     # of ELM steps 
   EDIFF  = 0.1E-06   stopping-criterion for ELM
   LREAL  =      F    real-space projection
   NLSPLINE    = F    spline interpolate recip. space projectors
   LCOMPAT=      F    compatible to vasp.4.4
   GGA_COMPAT  = T    GGA compatible to vasp.4.4-vasp.4.6
   LMAXPAW     = -100 max onsite density
   LMAXMIX     =    2 max onsite mixed and CHGCAR
   VOSKOWN=      0    Vosko Wilk Nusair interpolation
   ROPT   =    0.00000   0.00000   0.00000   0.00000
 Ionic relaxation
   EDIFFG = 0.1E-05   stopping-criterion for IOM
   NSW    =      0    number of steps for IOM
   NBLOCK =      1;   KBLOCK =      1    inner block; outer block 
   IBRION =     -1    ionic relax: 0-MD 1-quasi-New 2-CG
   NFREE  =      0    steps in history (QN), initial steepest desc. (CG)
   ISIF   =      0    stress and relaxation
   IWAVPR =     10    prediction:  0-non 1-charg 2-wave 3-comb
   ISYM   =      2    0-nonsym 1-usesym 2-fastsym
   LCORR  =      T    Harris-Foulkes like correction to forces

   POTIM  = 0.5000    time-step for ionic-motion
   TEIN   =    0.0    initial temperature
   TEBEG  =    0.0;   TEEND  =   0.0 temperature during run
   SMASS  =  -3.00    Nose mass-parameter (am)
   estimated Nose-frequenzy (Omega)   =  0.10E-29 period in steps = 0.13E+47 mass=  -0.326E-26a.u.
   SCALEE = 1.0000    scale energy and forces
   NPACO  =    256;   APACO  = 10.0  distance and # of slots for P.C.
   PSTRESS=    0.0 pullay stress

  Mass of Ions in am
   POMASS =  12.01  1.00 14.00 16.00
  Ionic Valenz
   ZVAL   =   4.00  1.00  5.00  6.00
  Atomic Wigner-Seitz radii
   RWIGS  =  -1.00 -1.00 -1.00 -1.00
  virtual crystal weights 
   VCA    =   1.00  1.00  1.00  1.00
   NELECT =     168.0000    total number of electrons
   NUPDOWN=      -1.0000    fix difference up-down

 DOS related values:
   EMIN   =  10.00;   EMAX   =-10.00  energy-range for DOS
   EFERMI =   0.00;   METHOD = LEGACY      
   ISMEAR =     0;   SIGMA  =   0.01  broadening in eV -4-tet -1-fermi 0-gaus

 Electronic relaxation 2 (details)
   IALGO  =     58    algorithm
   LDIAG  =      T    sub-space diagonalisation (order eigenvalues)
   LSUBROT=      F    optimize rotation matrix (better conditioning)
   TURBO    =      0    0=normal 1=particle mesh
   IRESTART =      0    0=no restart 2=restart with 2 vectors
   NREBOOT  =      0    no. of reboots
   NMIN     =      0    reboot dimension
   EREF     =   0.00    reference energy to select bands
   IMIX   =      4    mixing-type and parameters
     AMIX     =   0.40;   BMIX     =  1.00
     AMIX_MAG =   1.60;   BMIX_MAG =  1.00
     AMIN     =   0.10
     WC   =   100.;   INIMIX=   1;  MIXPRE=   1;  MAXMIX= -45

 Intra band minimization:
   WEIMIN = 0.0000     energy-eigenvalue tresh-hold
   EBREAK =  0.20E-09  absolut break condition
   DEPER  =   0.30     relativ break condition  

   TIME   =   0.40     timestep for ELM

  volume/ion in A,a.u.               =       9.65        65.15
  Fermi-wavevector in a.u.,A,eV,Ry     =   1.167339  2.205950 18.540376  1.362679
  Thomas-Fermi vector in A             =   2.303840

 Write flags
   LWAVE        =      F    write WAVECAR
   LDOWNSAMPLE  =      F    k-point downsampling of WAVECAR
   LCHARG       =      T    write CHGCAR
   LVTOT        =      F    write LOCPOT, total local potential
   LVHAR        =      F    write LOCPOT, Hartree potential only
   LELF         =      F    write electronic localiz. function (ELF)
   LORBIT       =      0    0 simple, 1 ext, 2 COOP (PROOUT), +10 PAW based schemes


 Dipole corrections
   LMONO  =      F    monopole corrections only (constant potential shift)
   LDIPOL =      F    correct potential (dipole corrections)
   IDIPOL =      0    1-x, 2-y, 3-z, 4-all directions 
   EPSILON=  1.0000000 bulk dielectric constant

 Exchange correlation treatment:
   GGA     =    --    GGA type
   LEXCH   =     8    internal setting for exchange type
   LIBXC   =     F    Libxc                    
   VOSKOWN =     0    Vosko Wilk Nusair interpolation
   LHFCALC =     F    Hartree Fock is set to
   LHFONE  =     F    Hartree Fock one center treatment
   AEXX    =    0.0000 exact exchange contribution

 Linear response parameters
   LEPSILON=     F    determine dielectric tensor
   LRPA    =     F    only Hartree local field effects (RPA)
   LNABLA  =     F    use nabla operator in PAW spheres
   LVEL    =     F    velocity operator in full k-point grid
   CSHIFT  =0.1000    complex shift for real part using Kramers Kronig
   OMEGAMAX=  -1.0    maximum frequency
   DEG_THRESHOLD= 0.2000000E-02 threshold for treating states as degnerate
   RTIME   =   -0.100 relaxation time in fs
  (WPLASMAI=    0.000 imaginary part of plasma frequency in eV, 0.658/RTIME)
   DFIELD  = 0.0000000 0.0000000 0.0000000 field for delta impulse in time

  Optional k-point grid parameters
   LKPOINTS_OPT  =     F    use optional k-point grid
   KPOINTS_OPT_MODE=     1    mode for optional k-point grid

 Orbital magnetization related:
   ORBITALMAG=     F  switch on orbital magnetization
   LCHIMAG   =     F  perturbation theory with respect to B field
   DQ        =  0.001000  dq finite difference perturbation B field
   LLRAUG    =     F  two centre corrections for induced B field
   LBONE     =     F  B-component reconstruction in AE one-centre
   LVGVCALC  =     T  calculate vGv susceptibility
   LVGVAPPL  =     F  apply vGv susceptibility instead of pGv for G=0

 Random number generation:
   RANDOM_GENERATOR = DEFAULT
   PCG_SEED         = not used


--------------------------------------------------------------------------------------------------------


 Static calculation
 charge density and potential will be updated during run
 non-spin polarized calculation
 Conjugate gradient for all bands (Freysoldt, et al. PRB 79, 241103 (2009))
 preconditioned conjugated gradient                                        
 perform sub-space diagonalisation
    before iterative eigenvector-optimisation
 modified Broyden-mixing scheme, WC =      100.0
 initial mixing is a Kerker type mixing with AMIX =  0.4000 and BMIX =      1.0000
 Hartree-type preconditioning will be used
 using additional bands           44
 reciprocal scheme for non local part
 use partial core corrections
 no Harris-corrections to forces 
 use gradient corrections 
 use of overlap-Matrix (Vanderbilt PP)
 Gauss-broadening in eV      SIGMA  =   0.01


--------------------------------------------------------------------------------------------------------


  energy-cutoff  :     1000.00
  volume of cell :      463.39
      direct lattice vectors                 reciprocal lattice vectors
    11.938000000  0.000000000  0.000000000     0.083766125 -0.000000000  0.050133080
     0.000000000 12.376000000  0.000000000     0.000000000  0.080801551 -0.000000000
    -1.877100000  0.000000000  3.136400000     0.000000000  0.000000000  0.318836883

  length of vectors
    11.938000000 12.376000000  3.655203055     0.097622177  0.080801551  0.318836883



 k-points in units of 2pi/SCALE and weight: auto                                    
   0.00000000  0.00000000  0.00000000       0.019
   0.02792204  0.00000000  0.01671103       0.037
   0.00000000  0.04040078  0.00000000       0.019
   0.02792204  0.04040078  0.01671103       0.037
   0.00000000  0.00000000  0.03542632       0.037
   0.02792204  0.00000000  0.05213735       0.037
  -0.02792204  0.00000000  0.01871529       0.037
   0.00000000  0.04040078  0.03542632       0.037
   0.02792204  0.04040078  0.05213735       0.037
  -0.02792204  0.04040078  0.01871529       0.037
   0.00000000  0.00000000  0.07085264       0.037
   0.02792204  0.00000000  0.08756367       0.037
  -0.02792204  0.00000000  0.05414161       0.037
   0.00000000  0.04040078  0.07085264       0.037
   0.02792204  0.04040078  0.08756367       0.037
  -0.02792204  0.04040078  0.05414161       0.037
   0.00000000  0.00000000  0.10627896       0.037
   0.02792204  0.00000000  0.12298999       0.037
  -0.02792204  0.00000000  0.08956793       0.037
   0.00000000  0.04040078  0.10627896       0.037
   0.02792204  0.04040078  0.12298999       0.037
  -0.02792204  0.04040078  0.08956793       0.037
   0.00000000  0.00000000  0.14170528       0.037
   0.02792204  0.00000000  0.15841631       0.037
  -0.02792204  0.00000000  0.12499425       0.037
   0.00000000  0.04040078  0.14170528       0.037
   0.02792204  0.04040078  0.15841631       0.037
  -0.02792204  0.04040078  0.12499425       0.037

 k-points in reciprocal lattice and weights: auto                                    
   0.00000000  0.00000000  0.00000000       0.019
   0.33333333  0.00000000  0.00000000       0.037
   0.00000000  0.50000000  0.00000000       0.019
   0.33333333  0.50000000  0.00000000       0.037
   0.00000000  0.00000000  0.11111111       0.037
   0.33333333  0.00000000  0.11111111       0.037
  -0.33333333  0.00000000  0.11111111       0.037
   0.00000000  0.50000000  0.11111111       0.037
   0.33333333  0.50000000  0.11111111       0.037
  -0.33333333  0.50000000  0.11111111       0.037
   0.00000000  0.00000000  0.22222222       0.037
   0.33333333  0.00000000  0.22222222       0.037
  -0.33333333  0.00000000  0.22222222       0.037
   0.00000000  0.50000000  0.22222222       0.037
   0.33333333  0.50000000  0.22222222       0.037
  -0.33333333  0.50000000  0.22222222       0.037
   0.00000000  0.00000000  0.33333333       0.037
   0.33333333  0.00000000  0.33333333       0.037
  -0.33333333  0.00000000  0.33333333       0.037
   0.00000000  0.50000000  0.33333333       0.037
   0.33333333  0.50000000  0.33333333       0.037
  -0.33333333  0.50000000  0.33333333       0.037
   0.00000000  0.00000000  0.44444444       0.037
   0.33333333  0.00000000  0.44444444       0.037
  -0.33333333  0.00000000  0.44444444       0.037
   0.00000000  0.50000000  0.44444444       0.037
   0.33333333  0.50000000  0.44444444       0.037
  -0.33333333  0.50000000  0.44444444       0.037

 position of ions in fractional coordinates (direct lattice) 
   0.14958062  0.20962327  0.00183112
   0.85041721  0.79037654  0.99816351
   0.35040764  0.70961362  0.99818358
   0.64959222  0.29038617  0.00181642
   0.18021506  0.01153678  0.03572186
   0.81978504  0.98846322  0.96428104
   0.31977684  0.51153067  0.96423348
   0.68022197  0.48846993  0.03576918
   0.30538783  0.02822100  0.08067803
   0.69461180  0.97177953  0.91932275
   0.19460464  0.52820689  0.91928607
   0.80539475  0.47179366  0.08071803
   0.34597473  0.13116683  0.08159388
   0.65402366  0.86883404  0.91840193
   0.15400901  0.63114861  0.91837985
   0.84598987  0.36885224  0.08161887
   0.43892648  0.15036114  0.10861928
   0.56107143  0.84964036  0.89137445
   0.06105820  0.65033857  0.89136370
   0.93894044  0.34966258  0.10863373
   0.30264448  0.29611254  0.02928195
   0.69735258  0.70388846  0.97071203
   0.19733582  0.79609413  0.97069551
   0.80266417  0.20390634  0.02930494
   0.01953300  0.09542218  0.97538542
   0.98046700  0.90457676  0.02461795
   0.48046291  0.59542132  0.02462111
   0.51953659  0.40457826  0.97538150
   0.36401431  0.95834171  0.10525317
   0.63598613  0.04165917  0.89474854
   0.13597813  0.45832392  0.89470111
   0.86402077  0.54167675  0.10530131
   0.27084335  0.21867817  0.04217324
   0.72915422  0.78132228  0.95781992
   0.22913807  0.71866134  0.95780235
   0.77086130  0.28133914  0.04219533
   0.11021980  0.10438191  0.00212578
   0.88977963  0.89561769  0.99787639
   0.38977402  0.60437598  0.99787178
   0.61022523  0.39562359  0.00212986
   0.08156984  0.28819377  0.96887594
   0.91842636  0.71180530  0.03111181
   0.41841859  0.78818972  0.03119612
   0.58158137  0.21180999  0.96880449
   0.13044351  0.92093927  0.02415137
   0.86955757  0.07906064  0.97585656
   0.36954350  0.42093232  0.97573655
   0.63045678  0.57906768  0.02427568

 position of ions in cartesian coordinates  (Angst):
   1.78225622  2.59429758  0.00574313
   8.27862796  9.78170004  3.13064003
   2.30947595  8.78217817  3.13070298
   7.75142237  3.59381922  0.00569702
   2.08435392  0.14277921  0.11203804
   7.97654185 12.23322079  3.02437106
   2.00753325  6.33070352  3.02422188
   8.05334757  6.04530388  0.11218645
   3.49427918  0.34926312  0.25303856
   6.56661499 12.02674350  2.88336387
   0.59759831  6.53708848  2.88324882
   9.46328674  5.83891832  0.25316402
   3.97708648  1.62332073  0.25591104
   6.08380215 10.75269009  2.88047582
   0.11466880  7.81109519  2.88040657
   9.94622034  4.56491532  0.25598942
   5.03601501  1.86086943  0.34067352
   5.02487175 10.51514907  2.79570684
  -0.94426597  8.04859019  2.79567310
  11.00515462  4.32742414  0.34071883
   3.55800472  3.66468878  0.09183989
   6.50287158  8.71132352  3.04454121
   0.53370246  9.85246089  3.04448938
   9.52719652  2.52354487  0.09191202
  -1.59771100  1.18094491  3.05919882
  11.65860468 11.19504198  0.07721175
   5.68954995  7.36893421  0.07722164
   4.37133923  5.00706054  3.05918654
   4.14803206 11.86043705  0.33011604
   5.91286997  0.51557388  2.80628931
  -0.05613653  5.67221686  2.80614055
  10.11701886  6.70379140  0.33026704
   3.15416454  2.70636101  0.13227215
   6.90671928  9.66964452  3.00410640
   0.93755944  8.89415270  3.00405129
   9.12333732  3.48185324  0.13234143
   1.31181370  1.29183053  0.00666728
   8.74907549 11.08416448  3.12973953
   2.78001716  7.47975718  3.12972506
   7.28087082  4.89623760  0.00668009
  -0.84489623  3.56668612  3.03878249
  10.90577388  8.80930236  0.09757908
   4.93652294  9.75463598  0.09784350
   5.12437551  2.62136045  3.03855840
   1.51190013 11.39754441  0.07574834
   8.54899792  0.97845444  3.06067651
   2.58005529  5.20945840  3.06030010
   7.48082512  7.16654161  0.07613823



--------------------------------------------------------------------------------------------------------


 k-point   1 :   0.0000 0.0000 0.0000  plane waves:   33337
 k-point   2 :   0.3333 0.0000 0.0000  plane waves:   33316
 k-point   3 :   0.0000 0.5000 0.0000  plane waves:   33300
 k-point   4 :   0.3333 0.5000 0.0000  plane waves:   33326
 k-point   5 :   0.0000 0.0000 0.1111  plane waves:   33331
 k-point   6 :   0.3333 0.0000 0.1111  plane waves:   33295
 k-point   7 :  -0.3333 0.0000 0.1111  plane waves:   33302
 k-point   8 :   0.0000 0.5000 0.1111  plane waves:   33314
 k-point   9 :   0.3333 0.5000 0.1111  plane waves:   33326
 k-point  10 :  -0.3333 0.5000 0.1111  plane waves:   33312
 k-point  11 :   0.0000 0.0000 0.2222  plane waves:   33285
 k-point  12 :   0.3333 0.0000 0.2222  plane waves:   33314
 k-point  13 :  -0.3333 0.0000 0.2222  plane waves:   33283
 k-point  14 :   0.0000 0.5000 0.2222  plane waves:   33278
 k-point  15 :   0.3333 0.5000 0.2222  plane waves:   33292
 k-point  16 :  -0.3333 0.5000 0.2222  plane waves:   33290
 k-point  17 :   0.0000 0.0000 0.3333  plane waves:   33250
 k-point  18 :   0.3333 0.0000 0.3333  plane waves:   33267
 k-point  19 :  -0.3333 0.0000 0.3333  plane waves:   33230
 k-point  20 :   0.0000 0.5000 0.3333  plane waves:   33250
 k-point  21 :   0.3333 0.5000 0.3333  plane waves:   33256
 k-point  22 :  -0.3333 0.5000 0.3333  plane waves:   33288
 k-point  23 :   0.0000 0.0000 0.4444  plane waves:   33225
 k-point  24 :   0.3333 0.0000 0.4444  plane waves:   33224
 k-point  25 :  -0.3333 0.0000 0.4444  plane waves:   33179
 k-point  26 :   0.0000 0.5000 0.4444  plane waves:   33222
 k-point  27 :   0.3333 0.5000 0.4444  plane waves:   33210
 k-point  28 :  -0.3333 0.5000 0.4444  plane waves:   33250

 maximum and minimum number of plane-waves per node :     16700    16569

 maximum number of plane-waves:     33337
 maximum index in each direction: 
   IXMAX=   31   IYMAX=   31   IZMAX=    9
   IXMIN=  -31   IYMIN=  -32   IZMIN=   -9


 parallel 3D FFT for wavefunctions:
    minimum data exchange during FFTs selected (reduces bandwidth)
 parallel 3D FFT for charge:
    minimum data exchange during FFTs selected (reduces bandwidth)


 total amount of memory used by VASP MPI-rank0   210945. kBytes
=======================================================================

   base      :      30000. kBytes
   nonl-proj :     133070. kBytes
   fftplans  :      10390. kBytes
   grid      :      14534. kBytes
   one-center:         73. kBytes
   wavefun   :      22878. kBytes

     INWAV:  cpu time      0.0001: real time      0.0003
 Broyden mixing: mesh for mixing (old mesh)
   NGX = 61   NGY = 63   NGZ = 19
  (NGX  =252   NGY  =256   NGZ  = 80)
  gives a total of  73017 points

 initial charge density was supplied:
 charge density of overlapping atoms calculated
 number of electron     168.0000000 magnetization 
 keeping initial charge density in first step


--------------------------------------------------------------------------------------------------------


 Maximum index for augmentation-charges          209 (set IRDMAX)


--------------------------------------------------------------------------------------------------------


 First call to EWALD:  gamma=   0.229
 Maximum number of real-space cells 2x 2x 6
 Maximum number of reciprocal cells 4x 4x 2

    FEWALD:  cpu time      0.0026: real time      0.0026


--------------------------------------- Ionic step        1  -------------------------------------------




--------------------------------------- Iteration      1(   1)  ---------------------------------------


    POTLOK:  cpu time      0.0715: real time      0.0721
    SETDIJ:  cpu time      0.0106: real time      0.0111
    TRIAL :  cpu time     19.8925: real time     19.9039
    CORREC:  cpu time      0.0019: real time      0.0019
    --------------------------------------------
      LOOP:  cpu time     19.9982: real time     20.0108

 eigenvalue-minimisations  :  7168
 total energy-change (2. order) : 0.1142893E+04  (-0.1373238E+05)
 number of electron     168.0000000 magnetization 
 augmentation part      168.0000000 magnetization 

 Free energy of the ion-electron system (eV)
  ---------------------------------------------------
  alpha Z        PSCENC =       181.76911525
  Ewald energy   TEWEN  =     -4035.17288410
  -Hartree energ DENC   =     -3482.74227654
  -exchange      EXHF   =         0.00000000
  -V(xc)+E(xc)   XCENC  =       498.28475231
  PAW double counting   =      6278.77158366    -6193.88347142
  entropy T*S    EENTRO =        -0.00071188
  eigenvalues    EBANDS =      -233.60207924
  atomic energy  EATOM  =      8129.46911657
  ---------------------------------------------------
  free energy    TOTEN  =      1142.89314463 eV

  energy without entropy =     1142.89385651  energy(sigma->0) =     1142.89350057


--------------------------------------------------------------------------------------------------------




--------------------------------------- Iteration      1(   2)  ---------------------------------------


    TRIAL :  cpu time     57.6879: real time     57.7187
    CORREC:  cpu time      0.0003: real time      0.0003
    --------------------------------------------
      LOOP:  cpu time     57.7013: real time     57.7486

 eigenvalue-minimisations  : 11392
 total energy-change (2. order) :-0.1421177E+04  (-0.1417430E+04)
 number of electron     168.0000000 magnetization 
 augmentation part      168.0000000 magnetization 

 Free energy of the ion-electron system (eV)
  ---------------------------------------------------
  alpha Z        PSCENC =       181.76911525
  Ewald energy   TEWEN  =     -4035.17288410
  -Hartree energ DENC   =     -3482.74227654
  -exchange      EXHF   =         0.00000000
  -V(xc)+E(xc)   XCENC  =       498.28475231
  PAW double counting   =      6278.77158366    -6193.88347142
  entropy T*S    EENTRO =        -0.00000000
  eigenvalues    EBANDS =     -1654.78025870
  atomic energy  EATOM  =      8129.46911657
  ---------------------------------------------------
  free energy    TOTEN  =      -278.28432295 eV

  energy without entropy =     -278.28432295  energy(sigma->0) =     -278.28432295


--------------------------------------------------------------------------------------------------------




--------------------------------------- Iteration      1(   3)  ---------------------------------------


    TRIAL :  cpu time     24.9546: real time     24.9690
    CORREC:  cpu time      0.0003: real time      0.0003
    --------------------------------------------
      LOOP:  cpu time     24.9680: real time     24.9996

 eigenvalue-minimisations  :  7552
 total energy-change (2. order) :-0.7440538E+02  (-0.7440538E+02)
 number of electron     168.0000000 magnetization 
 augmentation part      168.0000000 magnetization 

 Free energy of the ion-electron system (eV)
  ---------------------------------------------------
  alpha Z        PSCENC =       181.76911525
  Ewald energy   TEWEN  =     -4035.17288410
  -Hartree energ DENC   =     -3482.74227654
  -exchange      EXHF   =         0.00000000
  -V(xc)+E(xc)   XCENC  =       498.28475231
  PAW double counting   =      6278.77158366    -6193.88347142
  entropy T*S    EENTRO =        -0.00000000
  eigenvalues    EBANDS =     -1729.18563988
  atomic energy  EATOM  =      8129.46911657
  ---------------------------------------------------
  free energy    TOTEN  =      -352.68970413 eV

  energy without entropy =     -352.68970413  energy(sigma->0) =     -352.68970413


--------------------------------------------------------------------------------------------------------




--------------------------------------- Iteration      1(   4)  ---------------------------------------


    TRIAL :  cpu time     97.4801: real time     97.5297
    CORREC:  cpu time      0.0003: real time      0.0003
    --------------------------------------------
      LOOP:  cpu time     97.4921: real time     97.5593

 eigenvalue-minimisations  : 14336
 total energy-change (2. order) :-0.1080500E+01  (-0.1080500E+01)
 number of electron     168.0000000 magnetization 
 augmentation part      168.0000000 magnetization 

 Free energy of the ion-electron system (eV)
  ---------------------------------------------------
  alpha Z        PSCENC =       181.76911525
  Ewald energy   TEWEN  =     -4035.17288410
  -Hartree energ DENC   =     -3482.74227654
  -exchange      EXHF   =         0.00000000
  -V(xc)+E(xc)   XCENC  =       498.28475231
  PAW double counting   =      6278.77158366    -6193.88347142
  entropy T*S    EENTRO =        -0.00000000
  eigenvalues    EBANDS =     -1730.26614017
  atomic energy  EATOM  =      8129.46911657
  ---------------------------------------------------
  free energy    TOTEN  =      -353.77020443 eV

  energy without entropy =     -353.77020443  energy(sigma->0) =     -353.77020443


--------------------------------------------------------------------------------------------------------




--------------------------------------- Iteration      1(   5)  ---------------------------------------


    TRIAL :  cpu time     22.3876: real time     22.3993
    CORREC:  cpu time      0.0003: real time      0.0003
    CHARGE:  cpu time      0.6310: real time      0.6318
    --------------------------------------------
      LOOP:  cpu time     23.0358: real time     23.0618

 eigenvalue-minimisations  :  7296
 total energy-change (2. order) :-0.2138121E-03  (-0.2138121E-03)
 number of electron     168.0000000 magnetization 
 augmentation part        0.5220224 magnetization 

 Free energy of the ion-electron system (eV)
  ---------------------------------------------------
  alpha Z        PSCENC =       181.76911525
  Ewald energy   TEWEN  =     -4035.17288410
  -Hartree energ DENC   =     -3482.74227654
  -exchange      EXHF   =         0.00000000
  -V(xc)+E(xc)   XCENC  =       498.28475231
  PAW double counting   =      6278.77158366    -6193.88347142
  entropy T*S    EENTRO =        -0.00000000
  eigenvalues    EBANDS =     -1730.26635398
  atomic energy  EATOM  =      8129.46911657
  ---------------------------------------------------
  free energy    TOTEN  =      -353.77041824 eV

  energy without entropy =     -353.77041824  energy(sigma->0) =     -353.77041824


--------------------------------------------------------------------------------------------------------




--------------------------------------- Iteration      1(   6)  ---------------------------------------


    POTLOK:  cpu time      0.0313: real time      0.0313
    SETDIJ:  cpu time      0.0026: real time      0.0026
    TRIAL :  cpu time      5.2552: real time      5.2591
    CORREC:  cpu time      2.1120: real time      2.1152
    CHARGE:  cpu time      0.5948: real time      0.5948
    --------------------------------------------
      LOOP:  cpu time      8.0092: real time      8.0316

 eigenvalue-minimisations  :     0
 total energy-change (2. order) : 0.4955539E+02  (-0.2203715E+02)
 number of electron     168.0000000 magnetization 
 augmentation part        0.2224478 magnetization 

 Free energy of the ion-electron system (eV)
  ---------------------------------------------------
  alpha Z        PSCENC =       181.76911525
  Ewald energy   TEWEN  =     -4035.17288410
  -Hartree energ DENC   =     -4242.78657654
  -exchange      EXHF   =         0.00000000
  -V(xc)+E(xc)   XCENC  =       547.37926629
  PAW double counting   =     66479.52932076   -66404.29214889
  entropy T*S    EENTRO =        -0.00000000
  eigenvalues    EBANDS =      -960.11024106
  atomic energy  EATOM  =      8129.46911657
  ---------------------------------------------------
  free energy    TOTEN  =      -304.21503171 eV

  energy without entropy =     -304.21503171  energy(sigma->0) =     -304.21503171


--------------------------------------------------------------------------------------------------------




--------------------------------------- Iteration      1(   7)  ---------------------------------------


    POTLOK:  cpu time      0.0291: real time      0.0291
    SETDIJ:  cpu time      0.0026: real time      0.0026
    TRIAL :  cpu time      5.0878: real time      5.0906
    CORREC:  cpu time      2.0984: real time      2.1001
    CHARGE:  cpu time      0.5936: real time      0.5943
    --------------------------------------------
      LOOP:  cpu time      7.8418: real time      7.8474

 eigenvalue-minimisations  :     0
 total energy-change (2. order) :-0.2205067E+02  (-0.2640043E+01)
 number of electron     168.0000000 magnetization 
 augmentation part        0.1427232 magnetization 

 Free energy of the ion-electron system (eV)
  ---------------------------------------------------
  alpha Z        PSCENC =       181.76911525
  Ewald energy   TEWEN  =     -4035.17288410
  -Hartree energ DENC   =     -3903.38489962
  -exchange      EXHF   =         0.00000000
  -V(xc)+E(xc)   XCENC  =       526.20264727
  PAW double counting   =     86470.03353161   -86390.23399038
  entropy T*S    EENTRO =        -0.00000000
  eigenvalues    EBANDS =     -1304.94833771
  atomic energy  EATOM  =      8129.46911657
  ---------------------------------------------------
  free energy    TOTEN  =      -326.26570110 eV

  energy without entropy =     -326.26570110  energy(sigma->0) =     -326.26570110


--------------------------------------------------------------------------------------------------------




--------------------------------------- Iteration      1(   8)  ---------------------------------------


    POTLOK:  cpu time      0.0293: real time      0.0293
    SETDIJ:  cpu time      0.0026: real time      0.0026
    TRIAL :  cpu time      5.0752: real time      5.0787
    CORREC:  cpu time      2.0936: real time      2.0950
    CHARGE:  cpu time      0.5947: real time      0.5954
    --------------------------------------------
      LOOP:  cpu time      7.8072: real time      7.8320

 eigenvalue-minimisations  :     0
 total energy-change (2. order) :-0.2651565E+01  (-0.8625679E+00)
 number of electron     168.0000000 magnetization 
 augmentation part        0.1412981 magnetization 

 Free energy of the ion-electron system (eV)
  ---------------------------------------------------
  alpha Z        PSCENC =       181.76911525
  Ewald energy   TEWEN  =     -4035.17288410
  -Hartree energ DENC   =     -3899.09813073
  -exchange      EXHF   =         0.00000000
  -V(xc)+E(xc)   XCENC  =       525.52122978
  PAW double counting   =     86902.53459575   -86822.29675456
  entropy T*S    EENTRO =        -0.00000000
  eigenvalues    EBANDS =     -1311.64355383
  atomic energy  EATOM  =      8129.46911657
  ---------------------------------------------------
  free energy    TOTEN  =      -328.91726588 eV

  energy without entropy =     -328.91726588  energy(sigma->0) =     -328.91726588


--------------------------------------------------------------------------------------------------------




--------------------------------------- Iteration      1(   9)  ---------------------------------------


    POTLOK:  cpu time      0.0292: real time      0.0292
    SETDIJ:  cpu time      0.0026: real time      0.0026
    TRIAL :  cpu time      5.0513: real time      5.0553
    CORREC:  cpu time      2.1058: real time      2.1070
    CHARGE:  cpu time      0.5915: real time      0.5923
    --------------------------------------------
      LOOP:  cpu time      7.7952: real time      7.8154

 eigenvalue-minimisations  :     0
 total energy-change (2. order) :-0.8601826E+00  (-0.2425829E+00)
 number of electron     168.0000000 magnetization 
 augmentation part        0.1497549 magnetization 

 Free energy of the ion-electron system (eV)
  ---------------------------------------------------
  alpha Z        PSCENC =       181.76911525
  Ewald energy   TEWEN  =     -4035.17288410
  -Hartree energ DENC   =     -3896.22176572
  -exchange      EXHF   =         0.00000000
  -V(xc)+E(xc)   XCENC  =       525.27520316
  PAW double counting   =     86658.83390974   -86578.53947974
  entropy T*S    EENTRO =        -0.00000000
  eigenvalues    EBANDS =     -1315.19066364
  atomic energy  EATOM  =      8129.46911657
  ---------------------------------------------------
  free energy    TOTEN  =      -329.77744848 eV

  energy without entropy =     -329.77744848  energy(sigma->0) =     -329.77744848


--------------------------------------------------------------------------------------------------------




--------------------------------------- Iteration      1(  10)  ---------------------------------------


    POTLOK:  cpu time      0.0291: real time      0.0291
    SETDIJ:  cpu time      0.0025: real time      0.0025
    TRIAL :  cpu time      5.0640: real time      5.0687
    CORREC:  cpu time      2.0913: real time      2.0926
    CHARGE:  cpu time      0.5949: real time      0.5954
    --------------------------------------------
      LOOP:  cpu time      7.8111: real time      7.8177

 eigenvalue-minimisations  :     0
 total energy-change (2. order) :-0.2419872E+00  (-0.6327080E-01)
 number of electron     168.0000000 magnetization 
 augmentation part        0.1535647 magnetization 

 Free energy of the ion-electron system (eV)
  ---------------------------------------------------
  alpha Z        PSCENC =       181.76911525
  Ewald energy   TEWEN  =     -4035.17288410
  -Hartree energ DENC   =     -3884.79543635
  -exchange      EXHF   =         0.00000000
  -V(xc)+E(xc)   XCENC  =       524.72769690
  PAW double counting   =     85156.33421888   -85076.05436312
  entropy T*S    EENTRO =        -0.00000000
  eigenvalues    EBANDS =     -1326.29689967
  atomic energy  EATOM  =      8129.46911657
  ---------------------------------------------------
  free energy    TOTEN  =      -330.01943564 eV

  energy without entropy =     -330.01943564  energy(sigma->0) =     -330.01943564


--------------------------------------------------------------------------------------------------------




--------------------------------------- Iteration      1(  11)  ---------------------------------------


    POTLOK:  cpu time      0.0291: real time      0.0291
    SETDIJ:  cpu time      0.0026: real time      0.0026
    TRIAL :  cpu time      5.0430: real time      5.0459
    CORREC:  cpu time      2.1051: real time      2.1063
    CHARGE:  cpu time      0.5967: real time      0.5968
    --------------------------------------------
      LOOP:  cpu time      7.7908: real time      7.8105

 eigenvalue-minimisations  :     0
 total energy-change (2. order) :-0.6324328E-01  (-0.1461656E-01)
 number of electron     168.0000000 magnetization 
 augmentation part        0.1509852 magnetization 

 Free energy of the ion-electron system (eV)
  ---------------------------------------------------
  alpha Z        PSCENC =       181.76911525
  Ewald energy   TEWEN  =     -4035.17288410
  -Hartree energ DENC   =     -3882.64815037
  -exchange      EXHF   =         0.00000000
  -V(xc)+E(xc)   XCENC  =       524.59215385
  PAW double counting   =     84435.52687256   -84355.29851374
  entropy T*S    EENTRO =        -0.00000000
  eigenvalues    EBANDS =     -1328.32038894
  atomic energy  EATOM  =      8129.46911657
  ---------------------------------------------------
  free energy    TOTEN  =      -330.08267891 eV

  energy without entropy =     -330.08267891  energy(sigma->0) =     -330.08267891


--------------------------------------------------------------------------------------------------------




--------------------------------------- Iteration      1(  12)  ---------------------------------------


    POTLOK:  cpu time      0.0292: real time      0.0292
    SETDIJ:  cpu time      0.0026: real time      0.0026
    TRIAL :  cpu time      5.0779: real time      5.0812
    CORREC:  cpu time      2.1014: real time      2.1037
    CHARGE:  cpu time      0.5967: real time      0.5968
    --------------------------------------------
      LOOP:  cpu time      7.8209: real time      7.8433

 eigenvalue-minimisations  :     0
 total energy-change (2. order) :-0.1460480E-01  (-0.3229093E-02)
 number of electron     168.0000000 magnetization 
 augmentation part        0.1502153 magnetization 

 Free energy of the ion-electron system (eV)
  ---------------------------------------------------
  alpha Z        PSCENC =       181.76911525
  Ewald energy   TEWEN  =     -4035.17288410
  -Hartree energ DENC   =     -3881.67649082
  -exchange      EXHF   =         0.00000000
  -V(xc)+E(xc)   XCENC  =       524.51086228
  PAW double counting   =     84509.94702220   -84429.71086232
  entropy T*S    EENTRO =        -0.00000000
  eigenvalues    EBANDS =     -1329.23316278
  atomic energy  EATOM  =      8129.46911657
  ---------------------------------------------------
  free energy    TOTEN  =      -330.09728371 eV

  energy without entropy =     -330.09728371  energy(sigma->0) =     -330.09728371


--------------------------------------------------------------------------------------------------------




--------------------------------------- Iteration      1(  13)  ---------------------------------------


    POTLOK:  cpu time      0.0291: real time      0.0291
    SETDIJ:  cpu time      0.0025: real time      0.0025
    TRIAL :  cpu time      5.1128: real time      5.1164
    CORREC:  cpu time      2.0875: real time      2.0889
    CHARGE:  cpu time      0.5975: real time      0.5985
    --------------------------------------------
      LOOP:  cpu time      7.8428: real time      7.8663

 eigenvalue-minimisations  :     0
 total energy-change (2. order) :-0.3225541E-02  (-0.7680700E-03)
 number of electron     168.0000000 magnetization 
 augmentation part        0.1495526 magnetization 

 Free energy of the ion-electron system (eV)
  ---------------------------------------------------
  alpha Z        PSCENC =       181.76911525
  Ewald energy   TEWEN  =     -4035.17288410
  -Hartree energ DENC   =     -3881.50722716
  -exchange      EXHF   =         0.00000000
  -V(xc)+E(xc)   XCENC  =       524.51421456
  PAW double counting   =     84631.51522069   -84551.27897141
  entropy T*S    EENTRO =        -0.00000000
  eigenvalues    EBANDS =     -1329.40909365
  atomic energy  EATOM  =      8129.46911657
  ---------------------------------------------------
  free energy    TOTEN  =      -330.10050925 eV

  energy without entropy =     -330.10050925  energy(sigma->0) =     -330.10050925


--------------------------------------------------------------------------------------------------------




--------------------------------------- Iteration      1(  14)  ---------------------------------------


    POTLOK:  cpu time      0.0290: real time      0.0290
    SETDIJ:  cpu time      0.0026: real time      0.0026
    TRIAL :  cpu time      5.0757: real time      5.0792
    CORREC:  cpu time      2.0844: real time      2.0858
    CHARGE:  cpu time      0.5934: real time      0.5942
    --------------------------------------------
      LOOP:  cpu time      7.7987: real time      7.8225

 eigenvalue-minimisations  :     0
 total energy-change (2. order) :-0.7678093E-03  (-0.2052478E-03)
 number of electron     168.0000000 magnetization 
 augmentation part        0.1497480 magnetization 

 Free energy of the ion-electron system (eV)
  ---------------------------------------------------
  alpha Z        PSCENC =       181.76911525
  Ewald energy   TEWEN  =     -4035.17288410
  -Hartree energ DENC   =     -3881.24222623
  -exchange      EXHF   =         0.00000000
  -V(xc)+E(xc)   XCENC  =       524.49276729
  PAW double counting   =     84672.69938110   -84592.45756395
  entropy T*S    EENTRO =        -0.00000000
  eigenvalues    EBANDS =     -1329.65898300
  atomic energy  EATOM  =      8129.46911657
  ---------------------------------------------------
  free energy    TOTEN  =      -330.10127706 eV

  energy without entropy =     -330.10127706  energy(sigma->0) =     -330.10127706


--------------------------------------------------------------------------------------------------------




--------------------------------------- Iteration      1(  15)  ---------------------------------------


    POTLOK:  cpu time      0.0293: real time      0.0293
    SETDIJ:  cpu time      0.0025: real time      0.0025
    TRIAL :  cpu time      5.1123: real time      5.1159
    CORREC:  cpu time      2.0905: real time      2.0919
    CHARGE:  cpu time      0.5933: real time      0.5941
    --------------------------------------------
      LOOP:  cpu time      7.8445: real time      7.8635

 eigenvalue-minimisations  :     0
 total energy-change (2. order) :-0.2050924E-03  (-0.5932713E-04)
 number of electron     168.0000000 magnetization 
 augmentation part        0.1496203 magnetization 

 Free energy of the ion-electron system (eV)
  ---------------------------------------------------
  alpha Z        PSCENC =       181.76911525
  Ewald energy   TEWEN  =     -4035.17288410
  -Hartree energ DENC   =     -3881.54505518
  -exchange      EXHF   =         0.00000000
  -V(xc)+E(xc)   XCENC  =       524.50839739
  PAW double counting   =     84638.60344727   -84558.36538664
  entropy T*S    EENTRO =        -0.00000000
  eigenvalues    EBANDS =     -1329.36823272
  atomic energy  EATOM  =      8129.46911657
  ---------------------------------------------------
  free energy    TOTEN  =      -330.10148216 eV

  energy without entropy =     -330.10148216  energy(sigma->0) =     -330.10148216


--------------------------------------------------------------------------------------------------------




--------------------------------------- Iteration      1(  16)  ---------------------------------------


    POTLOK:  cpu time      0.0287: real time      0.0287
    SETDIJ:  cpu time      0.0026: real time      0.0026
    TRIAL :  cpu time      5.0618: real time      5.0659
    CORREC:  cpu time      2.0885: real time      2.0897
    CHARGE:  cpu time      0.5954: real time      0.5960
    --------------------------------------------
      LOOP:  cpu time      7.7902: real time      7.8134

 eigenvalue-minimisations  :     0
 total energy-change (2. order) :-0.5960502E-04  (-0.1853756E-04)
 number of electron     168.0000000 magnetization 
 augmentation part        0.1496142 magnetization 

 Free energy of the ion-electron system (eV)
  ---------------------------------------------------
  alpha Z        PSCENC =       181.76911525
  Ewald energy   TEWEN  =     -4035.17288410
  -Hartree energ DENC   =     -3881.48745606
  -exchange      EXHF   =         0.00000000
  -V(xc)+E(xc)   XCENC  =       524.50398685
  PAW double counting   =     84624.31718267   -84544.07777074
  entropy T*S    EENTRO =        -0.00000000
  eigenvalues    EBANDS =     -1329.42283220
  atomic energy  EATOM  =      8129.46911657
  ---------------------------------------------------
  free energy    TOTEN  =      -330.10154176 eV

  energy without entropy =     -330.10154176  energy(sigma->0) =     -330.10154176


--------------------------------------------------------------------------------------------------------




--------------------------------------- Iteration      1(  17)  ---------------------------------------


    POTLOK:  cpu time      0.0292: real time      0.0292
    SETDIJ:  cpu time      0.0026: real time      0.0026
    TRIAL :  cpu time      5.0756: real time      5.0790
    CORREC:  cpu time      2.0876: real time      2.0890
    CHARGE:  cpu time      0.5959: real time      0.5959
    --------------------------------------------
      LOOP:  cpu time      7.8091: real time      7.8261

 eigenvalue-minimisations  :     0
 total energy-change (2. order) :-0.1844607E-04  (-0.6503427E-05)
 number of electron     168.0000000 magnetization 
 augmentation part        0.1495152 magnetization 

 Free energy of the ion-electron system (eV)
  ---------------------------------------------------
  alpha Z        PSCENC =       181.76911525
  Ewald energy   TEWEN  =     -4035.17288410
  -Hartree energ DENC   =     -3881.55197468
  -exchange      EXHF   =         0.00000000
  -V(xc)+E(xc)   XCENC  =       524.50776870
  PAW double counting   =     84625.62600639   -84545.38678342
  entropy T*S    EENTRO =        -0.00000000
  eigenvalues    EBANDS =     -1329.36192492
  atomic energy  EATOM  =      8129.46911657
  ---------------------------------------------------
  free energy    TOTEN  =      -330.10156021 eV

  energy without entropy =     -330.10156021  energy(sigma->0) =     -330.10156021


--------------------------------------------------------------------------------------------------------




--------------------------------------- Iteration      1(  18)  ---------------------------------------


    POTLOK:  cpu time      0.0291: real time      0.0291
    SETDIJ:  cpu time      0.0026: real time      0.0026
    TRIAL :  cpu time      5.0490: real time      5.0525
    CORREC:  cpu time      2.1005: real time      2.1026
    CHARGE:  cpu time      0.5951: real time      0.5951
    --------------------------------------------
      LOOP:  cpu time      7.8054: real time      7.8112

 eigenvalue-minimisations  :     0
 total energy-change (2. order) :-0.6154980E-05  (-0.1989495E-05)
 number of electron     168.0000000 magnetization 
 augmentation part        0.1495153 magnetization 

 Free energy of the ion-electron system (eV)
  ---------------------------------------------------
  alpha Z        PSCENC =       181.76911525
  Ewald energy   TEWEN  =     -4035.17288410
  -Hartree energ DENC   =     -3881.55565449
  -exchange      EXHF   =         0.00000000
  -V(xc)+E(xc)   XCENC  =       524.50772236
  PAW double counting   =     84634.43893465   -84554.19903115
  entropy T*S    EENTRO =        -0.00000000
  eigenvalues    EBANDS =     -1329.35888545
  atomic energy  EATOM  =      8129.46911657
  ---------------------------------------------------
  free energy    TOTEN  =      -330.10156636 eV

  energy without entropy =     -330.10156636  energy(sigma->0) =     -330.10156636


--------------------------------------------------------------------------------------------------------




--------------------------------------- Iteration      1(  19)  ---------------------------------------


    POTLOK:  cpu time      0.0291: real time      0.0291
    SETDIJ:  cpu time      0.0026: real time      0.0026
    TRIAL :  cpu time      5.0798: real time      5.0835
    CORREC:  cpu time      2.0929: real time      2.0945
    CHARGE:  cpu time      0.5928: real time      0.5936
    --------------------------------------------
      LOOP:  cpu time      7.8102: real time      7.8340

 eigenvalue-minimisations  :     0
 total energy-change (2. order) :-0.1934590E-05  (-0.5800135E-06)
 number of electron     168.0000000 magnetization 
 augmentation part        0.1495149 magnetization 

 Free energy of the ion-electron system (eV)
  ---------------------------------------------------
  alpha Z        PSCENC =       181.76911525
  Ewald energy   TEWEN  =     -4035.17288410
  -Hartree energ DENC   =     -3881.55931577
  -exchange      EXHF   =         0.00000000
  -V(xc)+E(xc)   XCENC  =       524.50839873
  PAW double counting   =     84636.86509849   -84556.62529497
  entropy T*S    EENTRO =        -0.00000000
  eigenvalues    EBANDS =     -1329.35580250
  atomic energy  EATOM  =      8129.46911657
  ---------------------------------------------------
  free energy    TOTEN  =      -330.10156830 eV

  energy without entropy =     -330.10156830  energy(sigma->0) =     -330.10156830


--------------------------------------------------------------------------------------------------------




--------------------------------------- Iteration      1(  20)  ---------------------------------------


    POTLOK:  cpu time      0.0291: real time      0.0291
    SETDIJ:  cpu time      0.0026: real time      0.0026
    TRIAL :  cpu time      5.2717: real time      5.2772
    CORREC:  cpu time      2.0856: real time      2.0872
    CHARGE:  cpu time      0.5936: real time      0.5944
    --------------------------------------------
      LOOP:  cpu time      7.9956: real time      8.0208

 eigenvalue-minimisations  :     0
 total energy-change (2. order) :-0.5897164E-06  (-0.1771448E-06)
 number of electron     168.0000000 magnetization 
 augmentation part        0.1495222 magnetization 

 Free energy of the ion-electron system (eV)
  ---------------------------------------------------
  alpha Z        PSCENC =       181.76911525
  Ewald energy   TEWEN  =     -4035.17288410
  -Hartree energ DENC   =     -3881.55134899
  -exchange      EXHF   =         0.00000000
  -V(xc)+E(xc)   XCENC  =       524.50785710
  PAW double counting   =     84635.53254566   -84555.29271642
  entropy T*S    EENTRO =        -0.00000000
  eigenvalues    EBANDS =     -1329.36325396
  atomic energy  EATOM  =      8129.46911657
  ---------------------------------------------------
[...]
     99       8.7165      0.00000
    100       8.7168      0.00000
    101       8.8181      0.00000
    102       8.8183      0.00000
    103       9.2827      0.00000
    104       9.2829      0.00000
    105       9.5479      0.00000
    106       9.5479      0.00000
    107       9.6827      0.00000
    108       9.6830      0.00000
    109       9.8810      0.00000
    110       9.8812      0.00000
    111      10.0827      0.00000
    112      10.0829      0.00000
    113      10.1989      0.00000
    114      10.1992      0.00000
    115      10.4841      0.00000
    116      10.4845      0.00000
    117      10.6206      0.00000
    118      10.6224      0.00000
    119      10.8556      0.00000
    120      10.8568      0.00000
    121      11.0769      0.00000
    122      11.0840      0.00000
    123      11.3402      0.00000
    124      11.3444      0.00000
    125      11.4460      0.00000
    126      11.4602      0.00000
    127      11.6182      0.00000
    128      11.6306      0.00000

 k-point    28 :      -0.3333    0.5000    0.4444
  band No.  band energies     occupation 
      1     -20.7967      2.00000
      2     -20.7966      2.00000
      3     -20.7489      2.00000
      4     -20.7489      2.00000
      5     -20.0894      2.00000
      6     -20.0893      2.00000
      7     -20.0486      2.00000
      8     -20.0485      2.00000
      9     -18.1938      2.00000
     10     -18.1937      2.00000
     11     -18.1784      2.00000
     12     -18.1784      2.00000
     13     -16.9609      2.00000
     14     -16.9606      2.00000
     15     -16.8666      2.00000
     16     -16.8663      2.00000
     17     -13.4378      2.00000
     18     -13.4377      2.00000
     19     -13.3779      2.00000
     20     -13.3778      2.00000
     21     -10.9660      2.00000
     22     -10.9657      2.00000
     23     -10.7776      2.00000
     24     -10.7774      2.00000
     25     -10.3201      2.00000
     26     -10.3198      2.00000
     27     -10.2968      2.00000
     28     -10.2966      2.00000
     29      -8.3811      2.00000
     30      -8.3810      2.00000
     31      -8.2987      2.00000
     32      -8.2985      2.00000
     33      -7.7112      2.00000
     34      -7.7111      2.00000
     35      -7.5170      2.00000
     36      -7.5168      2.00000
     37      -6.6984      2.00000
     38      -6.6983      2.00000
     39      -6.5040      2.00000
     40      -6.5037      2.00000
     41      -6.2019      2.00000
     42      -6.2017      2.00000
     43      -6.0645      2.00000
     44      -6.0643      2.00000
     45      -5.6935      2.00000
     46      -5.6932      2.00000
     47      -5.4299      2.00000
     48      -5.4298      2.00000
     49      -5.0569      2.00000
     50      -5.0567      2.00000
     51      -4.7499      2.00000
     52      -4.7498      2.00000
     53      -4.3499      2.00000
     54      -4.3498      2.00000
     55      -4.2585      2.00000
     56      -4.2583      2.00000
     57      -4.1967      2.00000
     58      -4.1966      2.00000
     59      -4.0807      2.00000
     60      -4.0806      2.00000
     61      -3.6698      2.00000
     62      -3.6698      2.00000
     63      -3.5874      2.00000
     64      -3.5873      2.00000
     65      -2.8035      2.00000
     66      -2.8033      2.00000
     67      -2.7533      2.00000
     68      -2.7531      2.00000
     69      -1.3898      2.00000
     70      -1.3897      2.00000
     71      -1.1721      2.00000
     72      -1.1720      2.00000
     73      -1.0142      2.00000
     74      -1.0141      2.00000
     75      -0.7997      2.00000
     76      -0.7996      2.00000
     77      -0.5348      2.00000
     78      -0.5347      2.00000
     79      -0.3788      2.00000
     80      -0.3787      2.00000
     81      -0.1068      2.00000
     82      -0.1067      2.00000
     83      -0.0736      2.00000
     84      -0.0735      2.00000
     85       3.7642      0.00000
     86       3.7643      0.00000
     87       4.0302      0.00000
     88       4.0304      0.00000
     89       5.0275      0.00000
     90       5.0276      0.00000
     91       5.0549      0.00000
     92       5.0549      0.00000
     93       7.4153      0.00000
     94       7.4155      0.00000
     95       7.8428      0.00000
     96       7.8429      0.00000
     97       8.0814      0.00000
     98       8.0815      0.00000
     99       8.5754      0.00000
    100       8.5755      0.00000
    101       8.9505      0.00000
    102       8.9510      0.00000
    103       9.2666      0.00000
    104       9.2668      0.00000
    105       9.4917      0.00000
    106       9.4917      0.00000
    107       9.8097      0.00000
    108       9.8104      0.00000
    109       9.8461      0.00000
    110       9.8467      0.00000
    111      10.0730      0.00000
    112      10.0734      0.00000
    113      10.2648      0.00000
    114      10.2656      0.00000
    115      10.4816      0.00000
    116      10.4828      0.00000
    117      10.6418      0.00000
    118      10.6452      0.00000
    119      10.7890      0.00000
    120      10.7902      0.00000
    121      10.9978      0.00000
    122      11.0012      0.00000
    123      11.1715      0.00000
    124      11.1916      0.00000
    125      11.4263      0.00000
    126      11.4391      0.00000
    127      11.6416      0.00000
    128      11.6949      0.00000


--------------------------------------------------------------------------------------------------------


 soft charge-density along one line, spin component           1
         0         1         2         3         4         5         6         7         8         9
 total charge-density along one line

 pseudopotential strength for first ion, spin component:           1
 12.616  21.228  -0.005   0.000   0.003  -0.008   0.001   0.005
 21.228  35.718  -0.008   0.001   0.005  -0.014   0.001   0.009
 -0.005  -0.008  -3.144   0.000   0.000  -5.633   0.000   0.000
  0.000   0.001   0.000  -3.145   0.000   0.000  -5.634   0.000
  0.003   0.005   0.000   0.000  -3.144   0.000   0.000  -5.633
 -0.008  -0.014  -5.633   0.000   0.000 -10.071   0.000   0.001
  0.001   0.001   0.000  -5.634   0.000   0.000 -10.071  -0.000
  0.005   0.009   0.000   0.000  -5.633   0.001  -0.000 -10.071
 total augmentation occupancy for first ion, spin component:           1
  8.766  -3.319   1.031  -0.101  -0.795  -0.489   0.048   0.378
 -3.319   1.348  -0.492   0.049   0.384   0.241  -0.024  -0.187
  1.031  -0.492   8.521  -0.294  -1.150  -3.117   0.126   0.505
 -0.101   0.049  -0.294   3.127   0.496   0.126  -0.829  -0.210
 -0.795   0.384  -1.150   0.496   7.936   0.505  -0.210  -2.856
 -0.489   0.241  -3.117   0.126   0.505   1.172  -0.054  -0.226
  0.048  -0.024   0.126  -0.829  -0.210  -0.054   0.225   0.087
  0.378  -0.187   0.505  -0.210  -2.856  -0.226   0.087   1.056


------------------------ aborting loop because EDIFF is reached ----------------------------------------


    FORLOC:  cpu time      0.0086: real time      0.0086
    FORNL :  cpu time      2.7748: real time      2.7758
    FORCOR:  cpu time      0.0270: real time      0.0270
    OFIELD:  cpu time      0.0004: real time      0.0004

 ---------------------------------------------------------------------------------------------

         DFTD3 V3.0 Rev 1        
 IVDW         = 11
 DF pbe       
 parameters
 VDW_S6       =    1.0000
 VDW_S8       =    0.7220
 VDW_SR       =    1.2170
 rs18     =    1.0000
 alpha6   =   14.0000
 alpha8   =   16.0000
 k1-k3    =   16.0000    1.3333   -4.0000
 VDW_RADIUS   =   50.2022 A
 VDW_CNRADIUS =   21.1671 A
 Edisp (eV)   -3.07626

 E6    (eV) :    -1.9974
 E8    (eV) :    -1.0789
 % E8        : 35.07
    FORVDW:  cpu time      0.6784: real time      0.6799

 VOLUME and BASIS-vectors are now :
 -----------------------------------------------------------------------------
  energy-cutoff  :     1000.00
  volume of cell :      463.39
      direct lattice vectors                 reciprocal lattice vectors
    11.938000000  0.000000000  0.000000000     0.083766125 -0.000000000  0.050133080
     0.000000000 12.376000000  0.000000000     0.000000000  0.080801551 -0.000000000
    -1.877100000  0.000000000  3.136400000     0.000000000  0.000000000  0.318836883

  length of vectors
    11.938000000 12.376000000  3.655203055     0.097622177  0.080801551  0.318836883


 FORCES acting on ions:
    Electron-Ion                     Ewald-Force                    Non-Local-Force
 -----------------------------------------------------------------------------------------------
   -.132E+02 -.156E+02 0.112E+01   0.110E+02 0.190E+02 -.148E+01   0.236E+01 -.359E+01 0.376E+00
   0.132E+02 0.156E+02 -.113E+01   -.110E+02 -.190E+02 0.148E+01   -.236E+01 0.359E+01 -.376E+00
   0.132E+02 -.157E+02 -.112E+01   -.110E+02 0.191E+02 0.148E+01   -.236E+01 -.359E+01 -.377E+00
   -.132E+02 0.157E+02 0.112E+01   0.110E+02 -.191E+02 -.148E+01   0.236E+01 0.359E+01 0.377E+00
   -.767E+02 0.490E+01 -.247E+02   0.841E+02 -.651E+01 0.255E+02   -.759E+01 0.172E+01 -.765E+00
   0.767E+02 -.490E+01 0.247E+02   -.841E+02 0.651E+01 -.255E+02   0.759E+01 -.172E+01 0.765E+00
   0.767E+02 0.490E+01 0.247E+02   -.841E+02 -.651E+01 -.254E+02   0.759E+01 0.172E+01 0.765E+00
   -.767E+02 -.490E+01 -.247E+02   0.841E+02 0.650E+01 0.254E+02   -.759E+01 -.172E+01 -.765E+00
   -.127E+03 0.939E+02 -.486E+02   0.130E+03 -.961E+02 0.490E+02   -.306E+01 0.219E+01 -.419E+00
   0.127E+03 -.939E+02 0.486E+02   -.130E+03 0.961E+02 -.490E+02   0.306E+01 -.219E+01 0.419E+00
   0.127E+03 0.939E+02 0.486E+02   -.130E+03 -.961E+02 -.490E+02   0.306E+01 0.219E+01 0.419E+00
   -.127E+03 -.939E+02 -.486E+02   0.130E+03 0.961E+02 0.490E+02   -.306E+01 -.219E+01 -.419E+00
   -.155E+03 0.290E+02 -.412E+02   0.161E+03 -.358E+02 0.420E+02   -.681E+01 0.714E+01 -.859E+00
   0.155E+03 -.290E+02 0.412E+02   -.161E+03 0.358E+02 -.420E+02   0.681E+01 -.714E+01 0.859E+00
   0.155E+03 0.289E+02 0.412E+02   -.161E+03 -.358E+02 -.420E+02   0.681E+01 0.714E+01 0.859E+00
   -.155E+03 -.289E+02 -.412E+02   0.161E+03 0.358E+02 0.420E+02   -.681E+01 -.714E+01 -.859E+00
   -.492E+02 0.575E+01 -.820E+01   0.552E+02 -.444E+01 0.868E+01   -.601E+01 -.130E+01 -.481E+00
   0.492E+02 -.576E+01 0.820E+01   -.552E+02 0.444E+01 -.868E+01   0.601E+01 0.130E+01 0.481E+00
   0.492E+02 0.575E+01 0.820E+01   -.552E+02 -.444E+01 -.867E+01   0.601E+01 -.130E+01 0.481E+00
   -.492E+02 -.575E+01 -.820E+01   0.552E+02 0.444E+01 0.867E+01   -.601E+01 0.130E+01 -.481E+00
   -.216E+02 -.459E+02 0.171E-01   0.243E+02 0.523E+02 -.309E+00   -.271E+01 -.641E+01 0.282E+00
   0.216E+02 0.459E+02 -.167E-01   -.243E+02 -.523E+02 0.308E+00   0.271E+01 0.641E+01 -.282E+00
   0.216E+02 -.459E+02 -.240E-01   -.243E+02 0.523E+02 0.315E+00   0.271E+01 -.641E+01 -.282E+00
   -.216E+02 0.459E+02 0.239E-01   0.243E+02 -.523E+02 -.315E+00   -.271E+01 0.641E+01 0.282E+00
   0.536E+02 -.235E+01 0.777E+01   -.605E+02 0.164E+01 -.832E+01   0.686E+01 0.698E+00 0.561E+00
   -.536E+02 0.235E+01 -.777E+01   0.605E+02 -.164E+01 0.832E+01   -.686E+01 -.697E+00 -.561E+00
   -.536E+02 -.235E+01 -.777E+01   0.605E+02 0.164E+01 0.832E+01   -.686E+01 0.697E+00 -.561E+00
   0.536E+02 0.235E+01 0.777E+01   -.605E+02 -.165E+01 -.832E+01   0.686E+01 -.697E+00 0.561E+00
   -.429E+02 0.304E+02 -.118E+02   0.465E+02 -.352E+02 0.122E+02   -.357E+01 0.477E+01 -.395E+00
   0.429E+02 -.304E+02 0.118E+02   -.465E+02 0.352E+02 -.122E+02   0.357E+01 -.477E+01 0.395E+00
   0.429E+02 0.304E+02 0.118E+02   -.465E+02 -.352E+02 -.122E+02   0.357E+01 0.477E+01 0.395E+00
   -.429E+02 -.304E+02 -.118E+02   0.465E+02 0.352E+02 0.122E+02   -.357E+01 -.477E+01 -.395E+00
   -.924E+02 -.962E+02 -.239E+02   0.951E+02 0.103E+03 0.246E+02   -.269E+01 -.654E+01 -.701E+00
   0.924E+02 0.962E+02 0.239E+02   -.951E+02 -.103E+03 -.246E+02   0.269E+01 0.654E+01 0.702E+00
   0.924E+02 -.962E+02 0.239E+02   -.951E+02 0.103E+03 -.246E+02   0.269E+01 -.654E+01 0.704E+00
   -.924E+02 0.962E+02 -.239E+02   0.951E+02 -.103E+03 0.246E+02   -.269E+01 0.654E+01 -.704E+00
   0.877E+02 0.208E+00 0.990E+01   -.929E+02 -.205E+01 -.105E+02   0.537E+01 0.188E+01 0.638E+00
   -.877E+02 -.207E+00 -.990E+01   0.929E+02 0.205E+01 0.105E+02   -.537E+01 -.188E+01 -.638E+00
   -.877E+02 0.181E+00 -.992E+01   0.929E+02 -.203E+01 0.105E+02   -.537E+01 0.188E+01 -.639E+00
   0.877E+02 -.180E+00 0.992E+01   -.929E+02 0.203E+01 -.105E+02   0.537E+01 -.188E+01 0.638E+00
   0.149E+03 -.241E+03 0.279E+02   -.180E+03 0.282E+03 -.323E+02   0.315E+02 -.411E+02 0.448E+01
   -.149E+03 0.241E+03 -.279E+02   0.180E+03 -.282E+03 0.323E+02   -.315E+02 0.411E+02 -.448E+01
   -.149E+03 -.241E+03 -.279E+02   0.180E+03 0.282E+03 0.324E+02   -.315E+02 -.411E+02 -.449E+01
   0.149E+03 0.241E+03 0.279E+02   -.180E+03 -.282E+03 -.324E+02   0.315E+02 0.411E+02 0.449E+01
   0.326E+02 0.193E+03 -.216E+02   -.525E+02 -.234E+03 0.206E+02   0.200E+02 0.416E+02 0.944E+00
   -.326E+02 -.193E+03 0.216E+02   0.525E+02 0.234E+03 -.206E+02   -.200E+02 -.416E+02 -.944E+00
   -.326E+02 0.193E+03 0.216E+02   0.525E+02 -.234E+03 -.207E+02   -.200E+02 0.416E+02 -.932E+00
   0.326E+02 -.193E+03 -.216E+02   -.525E+02 0.234E+03 0.207E+02   0.200E+02 -.416E+02 0.931E+00
 -----------------------------------------------------------------------------------------------
   -.247E-03 0.673E-03 0.146E-02   0.199E-12 -.341E-12 -.675E-13   0.243E-03 -.675E-03 -.146E-02


 POSITION                                       TOTAL-FORCE (eV/Angst)
 -----------------------------------------------------------------------------------
      1.78226      2.59430      0.00574        -0.044212      0.027358     -0.005984
      8.27863      9.78170      3.13064         0.044202     -0.027478      0.005946
      2.30948      8.78218      3.13070         0.044141      0.028575      0.006295
      7.75142      3.59382      0.00570        -0.044314     -0.028496     -0.006320
      2.08435      0.14278      0.11204        -0.103478     -0.042188     -0.000046
      7.97654     12.23322      3.02437         0.103442      0.042236      0.000102
      2.00753      6.33070      3.02422         0.104103     -0.044167     -0.000485
      8.05335      6.04530      0.11219        -0.103857      0.043612      0.000702
      3.49428      0.34926      0.25304        -0.018680      0.017075      0.003172
      6.56661     12.02674      2.88336         0.018785     -0.017020     -0.003193
      0.59760      6.53709      2.88325         0.017659      0.016068     -0.003208
      9.46329      5.83892      0.25316        -0.017813     -0.015999      0.003075
      3.97709      1.62332      0.25591        -0.109545      0.078822     -0.008143
      6.08380     10.75269      2.88048         0.109507     -0.078869      0.008157
      0.11467      7.81110      2.88041         0.110567      0.078793      0.008142
      9.94622      4.56492      0.25599        -0.110532     -0.078834     -0.008102
      5.03602      1.86087      0.34067         0.032630      0.014208     -0.004770
      5.02487     10.51515      2.79571        -0.032597     -0.014217      0.004779
     -0.94427      8.04859      2.79567        -0.032785      0.014272      0.004649
     11.00515      4.32742      0.34072         0.032831     -0.014275     -0.004643
      3.55800      3.66469      0.09184         0.012849      0.033670     -0.006879
      6.50287      8.71132      3.04454        -0.012835     -0.033739      0.006885
      0.53370      9.85246      3.04449        -0.012703      0.033985      0.006766
      9.52720      2.52354      0.09191         0.012711     -0.033940     -0.006775
     -1.59771      1.18094      3.05920        -0.026158     -0.006912      0.004317
     11.65860     11.19504      0.07721         0.026027      0.006930     -0.004326
      5.68955      7.36893      0.07722         0.026231     -0.006982     -0.004162
      4.37134      5.00706      3.05919        -0.026260      0.006929      0.004172
      4.14803     11.86044      0.33012         0.001485     -0.012547     -0.001034
      5.91287      0.51557      2.80629        -0.001528      0.012587      0.001032
     -0.05614      5.67222      2.80614        -0.000736     -0.011977      0.001158
     10.11702      6.70379      0.33027         0.000755      0.011993     -0.001138
      3.15416      2.70636      0.13227         0.015796     -0.097656      0.007411
      6.90672      9.66964      3.00411        -0.015815      0.097739     -0.007401
      0.93756      8.89415      3.00405        -0.015865     -0.097075     -0.007057
      9.12334      3.48185      0.13234         0.015871      0.096986      0.007059
      1.31181      1.29183      0.00667         0.106657      0.009202     -0.001810
      8.74908     11.08416      3.12974        -0.106468     -0.009182      0.001800
      2.78002      7.47976      3.12973        -0.106665      0.009183      0.001699
      7.28087      4.89624      0.00668         0.106792     -0.008948     -0.001728
     -0.84490      3.56669      3.03878         0.057074     -0.049421      0.002070
     10.90577      8.80930      0.09758        -0.057090      0.049530     -0.002040
      4.93652      9.75464      0.09784        -0.057220     -0.050033     -0.002409
      5.12438      2.62136      3.03856         0.057264      0.050004      0.002412
      1.51190     11.39754      0.07575         0.032173      0.044735     -0.003399
      8.54900      0.97845      3.06068        -0.032204     -0.044810      0.003370
      2.58006      5.20946      3.06030        -0.032841      0.046252      0.003875
      7.48083      7.16654      0.07614         0.032646     -0.045978     -0.003996
 -----------------------------------------------------------------------------------
    total drift:                               -0.000004     -0.000002     -0.000002


--------------------------------------------------------------------------------------------------------



  FREE ENERGIE OF THE ION-ELECTRON SYSTEM (eV)
  ---------------------------------------------------
  free  energy   TOTEN  =      -333.17783273 eV

  energy  without entropy=     -333.17783273  energy(sigma->0) =     -333.17783273



--------------------------------------------------------------------------------------------------------


    POTLOK:  cpu time      0.0726: real time      0.0726


--------------------------------------------------------------------------------------------------------


 stress matrix after NEB project (eV)
     -2.97072      0.00000      0.08997
      0.00000     -2.84613      0.00001
      0.08997      0.00001     -4.46230
  FORCES: max atom, RMS     0.136014    0.075316
  FORCE total and by dimension    0.521807    0.110567
  Stress total and by dimension    6.070745    4.462303
     LOOP+:  cpu time    369.7275: real time    370.2956
    4ORBIT:  cpu time      0.0000: real time      0.0000

 total amount of memory used by VASP MPI-rank0   210945. kBytes
=======================================================================

   base      :      30000. kBytes
   nonl-proj :     133070. kBytes
   fftplans  :      10390. kBytes
   grid      :      14534. kBytes
   one-center:         73. kBytes
   wavefun   :      22878. kBytes

  
  
 General timing and accounting informations for this job:
 ========================================================
  
                  Total CPU time used (sec):      405.789
                            User time (sec):      403.046
                          System time (sec):        2.742
                         Elapsed time (sec):      411.269
  
                   Maximum memory used (kb):      512972.
                   Average memory used (kb):          N/A
  
                          Minor page faults:        81717
                          Major page faults:         1161
                 Voluntary context switches:         6458
