 vasp.6.4.1 05Apr23 (build Jun  6 2023 14:36:51) complex                         
 executed on        HPECrayEX_GCC date 2024.08.20  14:54:20
 running  256 mpi-ranks, with    1 threads/rank, on    2 nodes
 distrk:  each k-point on  256 cores,    1 groups
 distr:  one band on NCORE=   2 cores,  128 groups


--------------------------------------------------------------------------------------------------------


 INCAR:
   ALGO = Conjugate
   NCORE = 2
   PREC = Accurate
   EDIFF = 1E-7
   ENCUT = 1000
   ISMEAR = 0
   SIGMA = 0.01
   ISIF = 0
   SYMPREC = 1E-7
   GGA = B5
   ALDAX = 1.0
   AGGAX = 1.0
   AGGAC = 1.0
   ALDAC = 0.0
   IVDW = 11
   VDW_S8 = 1.682
   VDW_SR = 1.094
   LWAVE = .FALSE.
   LCHARGE = .FALSE.
   LWAVE = .FALSE.
   LCHARGE = .FALSE.

 POTCAR:    PAW_PBE H_h 06Feb2004                 
 POTCAR:    PAW_PBE C_h 06Feb2004                 
 POTCAR:    PAW_PBE N_h 06Feb2004                 
 POTCAR:    PAW_PBE H_h 06Feb2004                 
   VRHFIN =H: ultrasoft test                                                                        
   LEXCH  = PE                                                                                      
   EATOM  =    12.4884 eV,    0.9179 Ry                                                             
                                                                                                    
   TITEL  = PAW_PBE H_h 06Feb2004                                                                   
   LULTRA =        F    use ultrasoft PP ?                                                          
   IUNSCR =        0    unscreen: 0-lin 1-nonlin 2-no                                               
   RPACOR =    0.000    partial core radius                                                         
   POMASS =    1.000; ZVAL   =    1.000    mass and valenz                                          
   RCORE  =    0.800    outmost cutoff radius                                                       
   RWIGS  =    0.700; RWIGS  =    0.370    wigner-seitz radius (au A)                               
   ENMAX  =  700.000; ENMIN  =  350.000 eV                                                          
   RCLOC  =    0.701    cutoff for local pot                                                        
   LCOR   =        T    correct aug charges                                                         
   LPAW   =        T    paw PP                                                                      
   EAUG   = 1000.000                                                                                
   RMAX   =    0.819    core radius for proj-oper                                                   
   RAUG   =    1.000    factor for augmentation sphere                                              
   RDEP   =    0.817    radius for radial grids                                                     
   RDEPT  =    0.817    core radius for aug-charge                                                  
                                                                                                    
   Atomic configuration                                                                             
    2 entries                                                                                       
     n  l   j            E        occ.                                                              
     1  0  0.50        -6.4927   1.0000                                                             
     2  1  0.50        -3.4015   0.0000                                                             
   Description                                                                                      
     l       E           TYP  RCUT    TYP  RCUT                                                     
     0     -6.4927493     23  0.800                                                                 
     0      6.8029130     23  0.800                                                                 
     1     -6.8029130     23  0.800                                                                 
  local pseudopotential read in
  atomic valenz-charges read in
  non local Contribution for L=           0  read in
    real space projection operators read in
  non local Contribution for L=           0  read in
    real space projection operators read in
  non local Contribution for L=           1  read in
    real space projection operators read in
    PAW grid and wavefunctions read in

   number of l-projection  operators is LMAX  =           3
   number of lm-projection operators is LMMAX =           5

 POTCAR:    PAW_PBE C_h 06Feb2004                 
   VRHFIN =C: s2p2                                                                                  
   LEXCH  = PE                                                                                      
   EATOM  =   147.1560 eV,   10.8157 Ry                                                             
                                                                                                    
   TITEL  = PAW_PBE C_h 06Feb2004                                                                   
   LULTRA =        F    use ultrasoft PP ?                                                          
   IUNSCR =        1    unscreen: 0-lin 1-nonlin 2-no                                               
   RPACOR =    0.800    partial core radius                                                         
   POMASS =   12.011; ZVAL   =    4.000    mass and valenz                                          
   RCORE  =    1.100    outmost cutoff radius                                                       
   RWIGS  =    1.630; RWIGS  =    0.863    wigner-seitz radius (au A)                               
   ENMAX  =  700.000; ENMIN  =  500.000 eV                                                          
   ICORE  =        2    local potential                                                             
   LCOR   =        T    correct aug charges                                                         
   LPAW   =        T    paw PP                                                                      
   EAUG   =  946.768                                                                                
   DEXC   =    0.000                                                                                
   RMAX   =    1.128    core radius for proj-oper                                                   
   RAUG   =    1.300    factor for augmentation sphere                                              
   RDEP   =    1.162    radius for radial grids                                                     
   RDEPT  =    1.088    core radius for aug-charge                                                  
                                                                                                    
   Atomic configuration                                                                             
    4 entries                                                                                       
     n  l   j            E        occ.                                                              
     1  0  0.50      -273.3789   2.0000                                                             
     2  0  0.50       -13.7508   2.0000                                                             
     2  1  0.50        -5.2854   2.0000                                                             
     3  2  1.50        -5.4423   0.0000                                                             
   Description                                                                                      
     l       E           TYP  RCUT    TYP  RCUT                                                     
     0    -13.7508458     23  1.100                                                                 
     0     -8.2022199     23  1.100                                                                 
     1     -5.2854383     23  1.100                                                                 
     1      1.1560700     23  1.100                                                                 
     2     -5.4423304      7  1.100                                                                 
  local pseudopotential read in
  partial core-charges read in
  partial kinetic energy density read in
  atomic valenz-charges read in
  non local Contribution for L=           0  read in
    real space projection operators read in
  non local Contribution for L=           0  read in
    real space projection operators read in
  non local Contribution for L=           1  read in
    real space projection operators read in
  non local Contribution for L=           1  read in
    real space projection operators read in
    PAW grid and wavefunctions read in

   number of l-projection  operators is LMAX  =           4
   number of lm-projection operators is LMMAX =           8

 POTCAR:    PAW_PBE N_h 06Feb2004                 
   VRHFIN =N: s2p3                                                                                  
   LEXCH  = PE                                                                                      
   EATOM  =   264.5486 eV,   19.4438 Ry                                                             
                                                                                                    
   TITEL  = PAW_PBE N_h 06Feb2004                                                                   
   LULTRA =        F    use ultrasoft PP ?                                                          
   IUNSCR =        1    unscreen: 0-lin 1-nonlin 2-no                                               
   RPACOR =    0.800    partial core radius                                                         
   POMASS =   14.001; ZVAL   =    5.000    mass and valenz                                          
   RCORE  =    1.100    outmost cutoff radius                                                       
   RWIGS  =    1.480; RWIGS  =    0.783    wigner-seitz radius (au A)                               
   ENMAX  =  700.000; ENMIN  =  500.000 eV                                                          
   ICORE  =        2    local potential                                                             
   LCOR   =        T    correct aug charges                                                         
   LPAW   =        T    paw PP                                                                      
   EAUG   =  904.640                                                                                
   DEXC   =    0.000                                                                                
   RMAX   =    1.127    core radius for proj-oper                                                   
   RAUG   =    1.300    factor for augmentation sphere                                              
   RDEP   =    1.115    radius for radial grids                                                     
   RDEPT  =    1.106    core radius for aug-charge                                                  
                                                                                                    
   Atomic configuration                                                                             
    4 entries                                                                                       
     n  l   j            E        occ.                                                              
     1  0  0.50      -384.7179   2.0000                                                             
     2  0  0.50       -18.5828   2.0000                                                             
     2  1  0.50        -7.0898   3.0000                                                             
     3  2  1.50        -6.8029   0.0000                                                             
   Description                                                                                      
     l       E           TYP  RCUT    TYP  RCUT                                                     
     0    -18.5828117     23  1.100                                                                 
     0    -15.0750597     23  1.100                                                                 
     1     -7.0897851     23  1.100                                                                 
     1     -1.9663412     23  1.100                                                                 
     2     -6.8029130      7  1.100                                                                 
  local pseudopotential read in
  partial core-charges read in
  partial kinetic energy density read in
  kinetic energy density of atom read in
  atomic valenz-charges read in
  non local Contribution for L=           0  read in
    real space projection operators read in
  non local Contribution for L=           0  read in
    real space projection operators read in
  non local Contribution for L=           1  read in
    real space projection operators read in
  non local Contribution for L=           1  read in
    real space projection operators read in
    PAW grid and wavefunctions read in

   number of l-projection  operators is LMAX  =           4
   number of lm-projection operators is LMMAX =           8

 -----------------------------------------------------------------------------
|                                                                             |
|               ----> ADVICE to this user running VASP <----                  |
|                                                                             |
|     You have a (more or less) 'large supercell' and for larger cells it     |
|     might be more efficient to use real-space projection operators.         |
|     Therefore, try LREAL= Auto in the INCAR file.                           |
|     Mind: For very accurate calculation, you might also keep the            |
|     reciprocal projection scheme (i.e. LREAL=.FALSE.).                      |
|                                                                             |
 -----------------------------------------------------------------------------

 -----------------------------------------------------------------------------
|                                                                             |
|               ----> ADVICE to this user running VASP <----                  |
|                                                                             |
|     You enforced a specific xc type in the INCAR file but a different       |
|     type was found in the POTCAR file.                                      |
|     I HOPE YOU KNOW WHAT YOU ARE DOING!                                     |
|                                                                             |
 -----------------------------------------------------------------------------

  PAW_PBE H_h 06Feb2004                 :
 energy of atom  1       EATOM=  -12.4884
 kinetic energy error for atom=    0.0006 (will be added to EATOM!!)
  PAW_PBE C_h 06Feb2004                 :
 energy of atom  2       EATOM= -147.1560
 kinetic energy error for atom=    0.0031 (will be added to EATOM!!)
  PAW_PBE N_h 06Feb2004                 :
 energy of atom  3       EATOM= -264.5486
 kinetic energy error for atom=    0.0081 (will be added to EATOM!!)


 POSCAR:  H  C  N
  positions in cartesian coordinates
  No initial velocities read in
 exchange correlation table for  LEXCH =       12
   RHO(1)=    0.500       N(1)  =     2000
   RHO(2)=  100.500       N(2)  =     4000

 VTST: version 4.1, (05/19/21)

 CHAIN: initializing optimizer
 
 OPT: Using VASP Dynamics algorithm
 CHAIN: Read ICHAIN            0

 POSCAR:  H  C  N
  positions in cartesian coordinates
  No initial velocities read in



--------------------------------------------------------------------------------------------------------


 ion  position               nearest neighbor table
   1  0.092  0.334  0.517-  13 1.10
   2  0.517  0.092  0.334-  14 1.10
   3  0.275  0.850  0.850-  15 1.10
   4  0.517  0.334  0.092-  16 1.10
   5  0.334  0.092  0.517-  14 1.10
   6  0.334  0.517  0.092-  16 1.10
   7  0.908  0.666  0.666-  15 1.10
   8  0.666  0.908  0.666-  17 1.10
   9  0.850  0.275  0.850-  17 1.10
  10  0.092  0.517  0.334-  13 1.10
  11  0.850  0.850  0.275-  18 1.10
  12  0.666  0.666  0.908-  18 1.10
  13  0.092  0.335  0.335-  10 1.10   1 1.10  19 1.48  22 1.48
  14  0.335  0.092  0.335-   2 1.10   5 1.10  19 1.48  20 1.48
  15  0.092  0.849  0.849-   3 1.10   7 1.10  21 1.48  20 1.48
  16  0.335  0.335  0.092-   6 1.10   4 1.10  19 1.48  21 1.48
  17  0.849  0.092  0.849-   9 1.10   8 1.10  21 1.48  22 1.48
  18  0.849  0.849  0.092-  11 1.10  12 1.10  22 1.48  20 1.48
  19  0.341  0.341  0.341-  13 1.48  14 1.48  16 1.48
  20  0.092  0.842  0.092-  15 1.48  18 1.48  14 1.48
  21  0.092  0.092  0.842-  15 1.48  17 1.48  16 1.48
  22  0.842  0.092  0.092-  17 1.48  18 1.48  13 1.48

  LATTYP: Found a body centered cubic cell.
 ALAT       =     6.9526502000
  
  Lattice vectors:
  
 A1 = (  -3.4763251000,   3.4763251000,   3.4763251000)
 A2 = (   3.4763251000,  -3.4763251000,   3.4763251000)
 A3 = (   3.4763251000,   3.4763251000,  -3.4763251000)


Analysis of symmetry for initial positions (statically):
=====================================================================
 Subroutine PRICEL returns:
 Original cell was already a primitive cell.
 

 Routine SETGRP: Setting up the symmetry group for a 
 body centered cubic supercell.


 Subroutine GETGRP returns: Found  6 space group operations
 (whereof  6 operations were pure point group operations)
 out of a pool of 48 trial point group operations.


The static configuration has the point symmetry C_3v.


Analysis of symmetry for dynamics (positions and initial velocities):
=====================================================================
 Subroutine PRICEL returns:
 Original cell was already a primitive cell.
 

 Routine SETGRP: Setting up the symmetry group for a 
 body centered cubic supercell.


 Subroutine GETGRP returns: Found  6 space group operations
 (whereof  6 operations were pure point group operations)
 out of a pool of 48 trial point group operations.


The dynamic configuration has the point symmetry C_3v.


 Subroutine INISYM returns: Found  6 space group operations
 (whereof  6 operations are pure point group operations),
 and found     1 'primitive' translations


----------------------------------------------------------------------------------------

                                     Primitive cell                                     

  volume of cell :     168.0433

  direct lattice vectors                    reciprocal lattice vectors
    -3.476325100  3.476325100  3.476325100    -0.000000000  0.143830046  0.143830046
     3.476325100 -3.476325100  3.476325100     0.143830046 -0.000000000  0.143830046
     3.476325100  3.476325100 -3.476325100     0.143830046  0.143830046 -0.000000000

  length of vectors
     6.021171697  6.021171697  6.021171697     0.203406402  0.203406402  0.203406402

  position of ions in fractional coordinates (direct lattice)
     0.091781563  0.333502338  0.517058243
     0.517058243  0.091781563  0.333502338
     0.275337468  0.850053567  0.850053567
     0.517058243  0.333502338  0.091781563
     0.333502338  0.091781563  0.517058243
     0.333502338  0.517058243  0.091781563
     0.908218437  0.666497662  0.666497662
     0.666497662  0.908218437  0.666497662
     0.850053567  0.275337468  0.850053567
     0.091781563  0.517058243  0.333502338
     0.850053567  0.850053567  0.275337468
     0.666497662  0.666497662  0.908218437
     0.091781563  0.334825575  0.334825575
     0.334825575  0.091781563  0.334825575
     0.091781563  0.848744713  0.848744713
     0.334825575  0.334825575  0.091781563
     0.848744713  0.091781563  0.848744713
     0.848744713  0.848744713  0.091781563
     0.341326693  0.341326693  0.341326693
     0.091781563  0.842229212  0.091781563
     0.091781563  0.091781563  0.842229212
     0.842229212  0.091781563  0.091781563

  ion indices of the primitive-cell ions
   primitive index   ion index
                 1           1
                 2           2
                 3           3
                 4           4
                 5           5
                 6           6
                 7           7
                 8           8
                 9           9
                10          10
                11          11
                12          12
                13          13
                14          14
                15          15
                16          16
                17          17
                18          18
                19          19
                20          20
                21          21
                22          22

----------------------------------------------------------------------------------------



 KPOINTS: auto                                    

Automatic generation of k-mesh.
 Grid dimensions read from file:
 generate k-points for:    5    5    5

 Generating k-lattice:

  Cartesian coordinates                     Fractional coordinates (reciprocal lattice)
    -0.000000000  0.028766009  0.028766009     0.200000000 -0.000000000  0.000000000
     0.028766009 -0.000000000  0.028766009    -0.000000000  0.200000000  0.000000000
     0.028766009  0.028766009 -0.000000000     0.000000000 -0.000000000  0.200000000

  Length of vectors
     0.040681280  0.040681280  0.040681280

  Shift w.r.t. Gamma in fractional coordinates (k-lattice)
     0.000000000  0.000000000  0.000000000

 
 Subroutine IBZKPT returns following result:
 ===========================================
 
 Found     19 irreducible k-points:
 
 Following reciprocal coordinates:
            Coordinates               Weight
  0.000000  0.000000  0.000000      1.000000
  0.200000  0.000000  0.000000      6.000000
  0.200000  0.000000 -0.200000      6.000000
  0.400000  0.000000  0.000000      6.000000
  0.400000  0.000000 -0.400000      6.000000
  0.200000  0.200000  0.000000      6.000000
  0.400000  0.000000 -0.200000     12.000000
  0.400000 -0.200000 -0.200000      6.000000
  0.400000  0.200000  0.000000     12.000000
 -0.400000  0.000000 -0.400000      6.000000
 -0.400000 -0.400000 -0.200000      6.000000
  0.200000  0.200000  0.200000      2.000000
 -0.400000 -0.200000 -0.200000      6.000000
 -0.200000  0.200000  0.200000      6.000000
 -0.400000  0.400000  0.200000     12.000000
  0.200000 -0.200000  0.400000     12.000000
 -0.400000 -0.400000  0.200000      6.000000
  0.400000  0.400000  0.400000      2.000000
 -0.400000  0.400000  0.400000      6.000000
 
 Following cartesian coordinates:
            Coordinates               Weight
  0.000000  0.000000  0.000000      1.000000
  0.000000  0.028766  0.028766      6.000000
 -0.028766  0.000000  0.028766      6.000000
  0.000000  0.057532  0.057532      6.000000
 -0.057532  0.000000  0.057532      6.000000
  0.028766  0.028766  0.057532      6.000000
 -0.028766  0.028766  0.057532     12.000000
 -0.057532  0.028766  0.028766      6.000000
  0.028766  0.057532  0.086298     12.000000
 -0.057532 -0.115064 -0.057532      6.000000
 -0.086298 -0.086298 -0.115064      6.000000
  0.057532  0.057532  0.057532      2.000000
 -0.057532 -0.086298 -0.086298      6.000000
  0.057532  0.000000  0.000000      6.000000
  0.086298 -0.028766  0.000000     12.000000
  0.028766  0.086298  0.000000     12.000000
 -0.028766 -0.028766 -0.115064      6.000000
  0.115064  0.115064  0.115064      2.000000
  0.115064  0.000000  0.000000      6.000000
 


--------------------------------------------------------------------------------------------------------




 Dimension of arrays:
   k-points           NKPTS =     19   k-points in BZ     NKDIM =     19   number of bands    NBANDS=    128
   number of dos      NEDOS =    301   number of ions     NIONS =     22
   non local maximal  LDIM  =      4   non local SUM 2l+1 LMDIM =      8
   total plane-waves  NPLWV = 262144
   max r-space proj   IRMAX =      1   max aug-charges    IRDMAX=  11278
   dimension x,y,z NGX =    64 NGY =   64 NGZ =   64
   dimension x,y,z NGXF=   128 NGYF=  128 NGZF=  128
   support grid    NGXF=   128 NGYF=  128 NGZF=  128
   ions per type =              12   6   4
   NGX,Y,Z   is equivalent  to a cutoff of  17.67, 17.67, 17.67 a.u.
   NGXF,Y,Z  is equivalent  to a cutoff of  35.34, 35.34, 35.34 a.u.

 SYSTEM =  unknown system                          
 POSCAR =   H  C  N                                

 Startparameter for this run:
   NWRITE =      2    write-flag & timer
   PREC   = accura    normal or accurate (medium, high low for compatibility)
   ISTART =      0    job   : 0-new  1-cont  2-samecut
   ICHARG =      2    charge: 1-file 2-atom 10-const
   ISPIN  =      1    spin polarized calculation?
   LNONCOLLINEAR =      F non collinear calculations
   LSORBIT =      F    spin-orbit coupling
   INIWAV =      1    electr: 0-lowe 1-rand  2-diag
   LASPH  =      F    aspherical Exc in radial PAW
 Electronic Relaxation 1
   ENCUT  = 1000.0 eV  73.50 Ry    8.57 a.u.  15.53 15.53 15.53*2*pi/ulx,y,z
   ENINI  = 1000.0     initial cutoff
   ENAUG  = 1000.0 eV  augmentation charge cutoff
   NELM   =     60;   NELMIN=  2; NELMDL= -5     # of ELM steps 
   EDIFF  = 0.1E-06   stopping-criterion for ELM
   LREAL  =      F    real-space projection
   NLSPLINE    = F    spline interpolate recip. space projectors
   LCOMPAT=      F    compatible to vasp.4.4
   GGA_COMPAT  = T    GGA compatible to vasp.4.4-vasp.4.6
   LMAXPAW     = -100 max onsite density
   LMAXMIX     =    2 max onsite mixed and CHGCAR
   VOSKOWN=      0    Vosko Wilk Nusair interpolation
   ROPT   =    0.00000   0.00000   0.00000
 Ionic relaxation
   EDIFFG = 0.1E-05   stopping-criterion for IOM
   NSW    =      0    number of steps for IOM
   NBLOCK =      1;   KBLOCK =      1    inner block; outer block 
   IBRION =     -1    ionic relax: 0-MD 1-quasi-New 2-CG
   NFREE  =      0    steps in history (QN), initial steepest desc. (CG)
   ISIF   =      0    stress and relaxation
   IWAVPR =     10    prediction:  0-non 1-charg 2-wave 3-comb
   ISYM   =      2    0-nonsym 1-usesym 2-fastsym
   LCORR  =      T    Harris-Foulkes like correction to forces

   POTIM  = 0.5000    time-step for ionic-motion
   TEIN   =    0.0    initial temperature
   TEBEG  =    0.0;   TEEND  =   0.0 temperature during run
   SMASS  =  -3.00    Nose mass-parameter (am)
   estimated Nose-frequenzy (Omega)   =  0.10E-29 period in steps = 0.13E+47 mass=  -0.829E-27a.u.
   SCALEE = 1.0000    scale energy and forces
   NPACO  =    256;   APACO  = 10.0  distance and # of slots for P.C.
   PSTRESS=    0.0 pullay stress

  Mass of Ions in am
   POMASS =   1.00 12.01 14.00
  Ionic Valenz
   ZVAL   =   1.00  4.00  5.00
  Atomic Wigner-Seitz radii
   RWIGS  =  -1.00 -1.00 -1.00
  virtual crystal weights 
   VCA    =   1.00  1.00  1.00
   NELECT =      56.0000    total number of electrons
   NUPDOWN=      -1.0000    fix difference up-down

 DOS related values:
   EMIN   =  10.00;   EMAX   =-10.00  energy-range for DOS
   EFERMI =   0.00;   METHOD = LEGACY      
   ISMEAR =     0;   SIGMA  =   0.01  broadening in eV -4-tet -1-fermi 0-gaus

 Electronic relaxation 2 (details)
   IALGO  =     58    algorithm
   LDIAG  =      T    sub-space diagonalisation (order eigenvalues)
   LSUBROT=      F    optimize rotation matrix (better conditioning)
   TURBO    =      0    0=normal 1=particle mesh
   IRESTART =      0    0=no restart 2=restart with 2 vectors
   NREBOOT  =      0    no. of reboots
   NMIN     =      0    reboot dimension
   EREF     =   0.00    reference energy to select bands
   IMIX   =      4    mixing-type and parameters
     AMIX     =   0.40;   BMIX     =  1.00
     AMIX_MAG =   1.60;   BMIX_MAG =  1.00
     AMIN     =   0.10
     WC   =   100.;   INIMIX=   1;  MIXPRE=   1;  MAXMIX= -45

 Intra band minimization:
   WEIMIN = 0.0000     energy-eigenvalue tresh-hold
   EBREAK =  0.20E-09  absolut break condition
   DEPER  =   0.30     relativ break condition  

   TIME   =   0.40     timestep for ELM

  volume/ion in A,a.u.               =       7.64        51.55
  Fermi-wavevector in a.u.,A,eV,Ry     =   1.135003  2.144845 17.527467  1.288232
  Thomas-Fermi vector in A             =   2.271708

 Write flags
   LWAVE        =      F    write WAVECAR
   LDOWNSAMPLE  =      F    k-point downsampling of WAVECAR
   LCHARG       =      T    write CHGCAR
   LVTOT        =      F    write LOCPOT, total local potential
   LVHAR        =      F    write LOCPOT, Hartree potential only
   LELF         =      F    write electronic localiz. function (ELF)
   LORBIT       =      0    0 simple, 1 ext, 2 COOP (PROOUT), +10 PAW based schemes


 Dipole corrections
   LMONO  =      F    monopole corrections only (constant potential shift)
   LDIPOL =      F    correct potential (dipole corrections)
   IDIPOL =      0    1-x, 2-y, 3-z, 4-all directions 
   EPSILON=  1.0000000 bulk dielectric constant

 Exchange correlation treatment:
   GGA     =    B5    GGA type
   LEXCH   =    12    internal setting for exchange type
   LIBXC   =     F    Libxc                    
   VOSKOWN =     0    Vosko Wilk Nusair interpolation
   LHFCALC =     F    Hartree Fock is set to
   LHFONE  =     F    Hartree Fock one center treatment
   AEXX    =    0.0000 exact exchange contribution

 Linear response parameters
   LEPSILON=     F    determine dielectric tensor
   LRPA    =     F    only Hartree local field effects (RPA)
   LNABLA  =     F    use nabla operator in PAW spheres
   LVEL    =     F    velocity operator in full k-point grid
   CSHIFT  =0.1000    complex shift for real part using Kramers Kronig
   OMEGAMAX=  -1.0    maximum frequency
   DEG_THRESHOLD= 0.2000000E-02 threshold for treating states as degnerate
   RTIME   =   -0.100 relaxation time in fs
  (WPLASMAI=    0.000 imaginary part of plasma frequency in eV, 0.658/RTIME)
   DFIELD  = 0.0000000 0.0000000 0.0000000 field for delta impulse in time

  Optional k-point grid parameters
   LKPOINTS_OPT  =     F    use optional k-point grid
   KPOINTS_OPT_MODE=     1    mode for optional k-point grid

 Orbital magnetization related:
   ORBITALMAG=     F  switch on orbital magnetization
   LCHIMAG   =     F  perturbation theory with respect to B field
   DQ        =  0.001000  dq finite difference perturbation B field
   LLRAUG    =     F  two centre corrections for induced B field
   LBONE     =     F  B-component reconstruction in AE one-centre
   LVGVCALC  =     T  calculate vGv susceptibility
   LVGVAPPL  =     F  apply vGv susceptibility instead of pGv for G=0

 Random number generation:
   RANDOM_GENERATOR = DEFAULT
   PCG_SEED         = not used


--------------------------------------------------------------------------------------------------------


 Static calculation
 charge density and potential will be updated during run
 non-spin polarized calculation
 Conjugate gradient for all bands (Freysoldt, et al. PRB 79, 241103 (2009))
 preconditioned conjugated gradient                                        
 perform sub-space diagonalisation
    before iterative eigenvector-optimisation
 modified Broyden-mixing scheme, WC =      100.0
 initial mixing is a Kerker type mixing with AMIX =  0.4000 and BMIX =      1.0000
 Hartree-type preconditioning will be used
 using additional bands          100
 reciprocal scheme for non local part
 use partial core corrections
 no Harris-corrections to forces 
 use gradient corrections 
 use of overlap-Matrix (Vanderbilt PP)
 Gauss-broadening in eV      SIGMA  =   0.01


--------------------------------------------------------------------------------------------------------


  energy-cutoff  :     1000.00
  volume of cell :      168.04
      direct lattice vectors                 reciprocal lattice vectors
    -3.476325100  3.476325100  3.476325100    -0.000000000  0.143830046  0.143830046
     3.476325100 -3.476325100  3.476325100     0.143830046 -0.000000000  0.143830046
     3.476325100  3.476325100 -3.476325100     0.143830046  0.143830046 -0.000000000

  length of vectors
     6.021171697  6.021171697  6.021171697     0.203406402  0.203406402  0.203406402



 k-points in units of 2pi/SCALE and weight: auto                                    
   0.00000000  0.00000000  0.00000000       0.008
   0.00000000  0.02876601  0.02876601       0.048
  -0.02876601  0.00000000  0.02876601       0.048
   0.00000000  0.05753202  0.05753202       0.048
  -0.05753202  0.00000000  0.05753202       0.048
   0.02876601  0.02876601  0.05753202       0.048
  -0.02876601  0.02876601  0.05753202       0.096
  -0.05753202  0.02876601  0.02876601       0.048
   0.02876601  0.05753202  0.08629803       0.096
  -0.05753202 -0.11506404 -0.05753202       0.048
  -0.08629803 -0.08629803 -0.11506404       0.048
   0.05753202  0.05753202  0.05753202       0.016
  -0.05753202 -0.08629803 -0.08629803       0.048
   0.05753202  0.00000000  0.00000000       0.048
   0.08629803 -0.02876601  0.00000000       0.096
   0.02876601  0.08629803  0.00000000       0.096
  -0.02876601 -0.02876601 -0.11506404       0.048
   0.11506404  0.11506404  0.11506404       0.016
   0.11506404  0.00000000  0.00000000       0.048

 k-points in reciprocal lattice and weights: auto                                    
   0.00000000  0.00000000  0.00000000       0.008
   0.20000000  0.00000000  0.00000000       0.048
   0.20000000  0.00000000 -0.20000000       0.048
   0.40000000  0.00000000  0.00000000       0.048
   0.40000000  0.00000000 -0.40000000       0.048
   0.20000000  0.20000000  0.00000000       0.048
   0.40000000  0.00000000 -0.20000000       0.096
   0.40000000 -0.20000000 -0.20000000       0.048
   0.40000000  0.20000000  0.00000000       0.096
  -0.40000000  0.00000000 -0.40000000       0.048
  -0.40000000 -0.40000000 -0.20000000       0.048
   0.20000000  0.20000000  0.20000000       0.016
  -0.40000000 -0.20000000 -0.20000000       0.048
  -0.20000000  0.20000000  0.20000000       0.048
  -0.40000000  0.40000000  0.20000000       0.096
   0.20000000 -0.20000000  0.40000000       0.096
  -0.40000000 -0.40000000  0.20000000       0.048
   0.40000000  0.40000000  0.40000000       0.016
  -0.40000000  0.40000000  0.40000000       0.048

 position of ions in fractional coordinates (direct lattice) 
   0.09178156  0.33350234  0.51705824
   0.51705824  0.09178156  0.33350234
   0.27533747  0.85005357  0.85005357
   0.51705824  0.33350234  0.09178156
   0.33350234  0.09178156  0.51705824
   0.33350234  0.51705824  0.09178156
   0.90821844  0.66649766  0.66649766
   0.66649766  0.90821844  0.66649766
   0.85005357  0.27533747  0.85005357
   0.09178156  0.51705824  0.33350234
   0.85005357  0.85005357  0.27533747
   0.66649766  0.66649766  0.90821844
   0.09178156  0.33482557  0.33482557
   0.33482557  0.09178156  0.33482557
   0.09178156  0.84874471  0.84874471
   0.33482557  0.33482557  0.09178156
   0.84874471  0.09178156  0.84874471
   0.84874471  0.84874471  0.09178156
   0.34132669  0.34132669  0.34132669
   0.09178156  0.84222921  0.09178156
   0.09178156  0.09178156  0.84222921
   0.84222921  0.09178156  0.09178156

 position of ions in cartesian coordinates  (Angst):
   2.63776255  0.95716255 -0.31903745
  -0.31903745  2.63776255  0.95716255
   4.95296255  0.95716255  0.95716255
  -0.31903745  0.95716255  2.63776255
   0.95716255  2.63776255 -0.31903745
   0.95716255 -0.31903745  2.63776255
   1.47666255  3.15726255  3.15726255
   3.15726255  1.47666255  3.15726255
   0.95716255  4.95296255  0.95716255
   2.63776255 -0.31903745  0.95716255
   0.95716255  0.95716255  4.95296255
   3.15726255  3.15726255  1.47666255
   2.00886255  0.31906255  0.31906255
   0.31906255  2.00886255  0.31906255
   5.58196255  0.31906255  0.31906255
   0.31906255  0.31906255  2.00886255
   0.31906255  5.58196255  0.31906255
   0.31906255  0.31906255  5.58196255
   1.18656255  1.18656255  1.18656255
   2.92786255 -2.28973745  2.92786255
   2.92786255  2.92786255 -2.28973745
  -2.28973745  2.92786255  2.92786255



--------------------------------------------------------------------------------------------------------


 k-point   1 :   0.0000 0.0000 0.0000  plane waves:   12017
 k-point   2 :   0.2000 0.0000 0.0000  plane waves:   12071
 k-point   3 :   0.2000 0.0000-0.2000  plane waves:   12071
 k-point   4 :   0.4000 0.0000 0.0000  plane waves:   12080
 k-point   5 :   0.4000 0.0000-0.4000  plane waves:   12080
 k-point   6 :   0.2000 0.2000 0.0000  plane waves:   12053
 k-point   7 :   0.4000 0.0000-0.2000  plane waves:   12053
 k-point   8 :   0.4000-0.2000-0.2000  plane waves:   12053
 k-point   9 :   0.4000 0.2000 0.0000  plane waves:   12091
 k-point  10 :  -0.4000 0.0000-0.4000  plane waves:   12091
 k-point  11 :  -0.4000-0.4000-0.2000  plane waves:   12091
 k-point  12 :   0.2000 0.2000 0.2000  plane waves:   12085
 k-point  13 :  -0.4000-0.2000-0.2000  plane waves:   12085
 k-point  14 :  -0.2000 0.2000 0.2000  plane waves:   12102
 k-point  15 :  -0.4000 0.4000 0.2000  plane waves:   12062
 k-point  16 :   0.2000-0.2000 0.4000  plane waves:   12062
 k-point  17 :  -0.4000-0.4000 0.2000  plane waves:   12073
 k-point  18 :   0.4000 0.4000 0.4000  plane waves:   12073
 k-point  19 :  -0.4000 0.4000 0.4000  plane waves:   12014

 maximum and minimum number of plane-waves per node :      6070     5984

 maximum number of plane-waves:     12102
 maximum index in each direction: 
   IXMAX=   15   IYMAX=   15   IZMAX=   15
   IXMIN=  -15   IYMIN=  -15   IZMIN=  -15


 parallel 3D FFT for wavefunctions:
    minimum data exchange during FFTs selected (reduces bandwidth)
 parallel 3D FFT for charge:
    minimum data exchange during FFTs selected (reduces bandwidth)


 total amount of memory used by VASP MPI-rank0    71114. kBytes
=======================================================================

   base      :      30000. kBytes
   nonl-proj :      24576. kBytes
   fftplans  :       4451. kBytes
   grid      :       6336. kBytes
   one-center:         33. kBytes
   wavefun   :       5718. kBytes

     INWAV:  cpu time      0.0000: real time      0.0000
 Broyden mixing: mesh for mixing (old mesh)
   NGX = 31   NGY = 31   NGZ = 31
  (NGX  =128   NGY  =128   NGZ  =128)
  gives a total of  29791 points

 initial charge density was supplied:
 charge density of overlapping atoms calculated
 number of electron      56.0000000 magnetization 
 keeping initial charge density in first step


--------------------------------------------------------------------------------------------------------


 Maximum index for augmentation-charges          217 (set IRDMAX)


--------------------------------------------------------------------------------------------------------


 First call to EWALD:  gamma=   0.321
 Maximum number of real-space cells 3x 3x 3
 Maximum number of reciprocal cells 3x 3x 3

    FEWALD:  cpu time      0.0018: real time      0.0020


--------------------------------------- Ionic step        1  -------------------------------------------




--------------------------------------- Iteration      1(   1)  ---------------------------------------


    POTLOK:  cpu time      0.0998: real time      0.1006
    SETDIJ:  cpu time      0.0103: real time      0.0106
    TRIAL :  cpu time     10.6295: real time     10.6343
    CORREC:  cpu time      0.0027: real time      0.0027
    --------------------------------------------
      LOOP:  cpu time     10.7486: real time     10.7545

 eigenvalue-minimisations  :  4864
 total energy-change (2. order) : 0.7116224E+02  (-0.5693812E+04)
 number of electron      56.0000000 magnetization 
 augmentation part       56.0000000 magnetization 

 Free energy of the ion-electron system (eV)
  ---------------------------------------------------
  alpha Z        PSCENC =        56.89320909
  Ewald energy   TEWEN  =      -822.09389158
  -Hartree energ DENC   =     -1122.58246755
  -exchange      EXHF   =         0.00000000
  -V(xc)+E(xc)   XCENC  =       134.68782864
  PAW double counting   =      1530.00079734    -1494.10124889
  entropy T*S    EENTRO =        -0.00016960
  eigenvalues    EBANDS =      -304.88609119
  atomic energy  EATOM  =      2093.24427495
  ---------------------------------------------------
  free energy    TOTEN  =        71.16224121 eV

  energy without entropy =       71.16241081  energy(sigma->0) =       71.16232601


--------------------------------------------------------------------------------------------------------




--------------------------------------- Iteration      1(   2)  ---------------------------------------


    TRIAL :  cpu time     29.1356: real time     29.1546
    CORREC:  cpu time      0.0003: real time      0.0003
    --------------------------------------------
      LOOP:  cpu time     29.1497: real time     29.1831

 eigenvalue-minimisations  :  7296
 total energy-change (2. order) :-0.2027887E+03  (-0.2026825E+03)
 number of electron      56.0000000 magnetization 
 augmentation part       56.0000000 magnetization 

 Free energy of the ion-electron system (eV)
  ---------------------------------------------------
  alpha Z        PSCENC =        56.89320909
  Ewald energy   TEWEN  =      -822.09389158
  -Hartree energ DENC   =     -1122.58246755
  -exchange      EXHF   =         0.00000000
  -V(xc)+E(xc)   XCENC  =       134.68782864
  PAW double counting   =      1530.00079734    -1494.10124889
  entropy T*S    EENTRO =        -0.00000000
  eigenvalues    EBANDS =      -507.67498101
  atomic energy  EATOM  =      2093.24427495
  ---------------------------------------------------
  free energy    TOTEN  =      -131.62647901 eV

  energy without entropy =     -131.62647901  energy(sigma->0) =     -131.62647901


--------------------------------------------------------------------------------------------------------




--------------------------------------- Iteration      1(   3)  ---------------------------------------


    TRIAL :  cpu time     11.3397: real time     11.3459
    CORREC:  cpu time      0.0003: real time      0.0003
    --------------------------------------------
      LOOP:  cpu time     11.3527: real time     11.3746

 eigenvalue-minimisations  :  4864
 total energy-change (2. order) :-0.2241581E+01  (-0.2241581E+01)
 number of electron      56.0000000 magnetization 
 augmentation part       56.0000000 magnetization 

 Free energy of the ion-electron system (eV)
  ---------------------------------------------------
  alpha Z        PSCENC =        56.89320909
  Ewald energy   TEWEN  =      -822.09389158
  -Hartree energ DENC   =     -1122.58246755
  -exchange      EXHF   =         0.00000000
  -V(xc)+E(xc)   XCENC  =       134.68782864
  PAW double counting   =      1530.00079734    -1494.10124889
  entropy T*S    EENTRO =        -0.00000000
  eigenvalues    EBANDS =      -509.91656177
  atomic energy  EATOM  =      2093.24427495
  ---------------------------------------------------
  free energy    TOTEN  =      -133.86805977 eV

  energy without entropy =     -133.86805977  energy(sigma->0) =     -133.86805977


--------------------------------------------------------------------------------------------------------




--------------------------------------- Iteration      1(   4)  ---------------------------------------


    TRIAL :  cpu time     61.3174: real time     61.3477
    CORREC:  cpu time      0.0003: real time      0.0003
    --------------------------------------------
      LOOP:  cpu time     61.3469: real time     61.3774

 eigenvalue-minimisations  :  9728
 total energy-change (2. order) :-0.3977980E-02  (-0.3977980E-02)
 number of electron      56.0000000 magnetization 
 augmentation part       56.0000000 magnetization 

 Free energy of the ion-electron system (eV)
  ---------------------------------------------------
  alpha Z        PSCENC =        56.89320909
  Ewald energy   TEWEN  =      -822.09389158
  -Hartree energ DENC   =     -1122.58246755
  -exchange      EXHF   =         0.00000000
  -V(xc)+E(xc)   XCENC  =       134.68782864
  PAW double counting   =      1530.00079734    -1494.10124889
  entropy T*S    EENTRO =        -0.00000000
  eigenvalues    EBANDS =      -509.92053975
  atomic energy  EATOM  =      2093.24427495
  ---------------------------------------------------
  free energy    TOTEN  =      -133.87203775 eV

  energy without entropy =     -133.87203775  energy(sigma->0) =     -133.87203775


--------------------------------------------------------------------------------------------------------




--------------------------------------- Iteration      1(   5)  ---------------------------------------


    TRIAL :  cpu time     11.2242: real time     11.2308
    CORREC:  cpu time      0.0003: real time      0.0003
    CHARGE:  cpu time      0.1112: real time      0.1116
    --------------------------------------------
      LOOP:  cpu time     11.3501: real time     11.3720

 eigenvalue-minimisations  :  4864
 total energy-change (2. order) :-0.8803909E-08  (-0.8804997E-08)
 number of electron      56.0000000 magnetization 
 augmentation part       -0.0373031 magnetization 

 Free energy of the ion-electron system (eV)
  ---------------------------------------------------
  alpha Z        PSCENC =        56.89320909
  Ewald energy   TEWEN  =      -822.09389158
  -Hartree energ DENC   =     -1122.58246755
  -exchange      EXHF   =         0.00000000
  -V(xc)+E(xc)   XCENC  =       134.68782864
  PAW double counting   =      1530.00079734    -1494.10124889
  entropy T*S    EENTRO =        -0.00000000
  eigenvalues    EBANDS =      -509.92053976
  atomic energy  EATOM  =      2093.24427495
  ---------------------------------------------------
  free energy    TOTEN  =      -133.87203776 eV

  energy without entropy =     -133.87203776  energy(sigma->0) =     -133.87203776


--------------------------------------------------------------------------------------------------------




--------------------------------------- Iteration      1(   6)  ---------------------------------------


    POTLOK:  cpu time      0.0691: real time      0.0691
    SETDIJ:  cpu time      0.0044: real time      0.0044
    TRIAL :  cpu time      1.4152: real time      1.4171
    CORREC:  cpu time      0.7673: real time      0.7682
    CHARGE:  cpu time      0.0841: real time      0.0841
    --------------------------------------------
      LOOP:  cpu time      2.3539: real time      2.3722

 eigenvalue-minimisations  :     0
 total energy-change (2. order) : 0.1796216E+02  (-0.7659915E+01)
 number of electron      56.0000000 magnetization 
 augmentation part       -0.0763556 magnetization 

 Free energy of the ion-electron system (eV)
  ---------------------------------------------------
  alpha Z        PSCENC =        56.89320909
  Ewald energy   TEWEN  =      -822.09389158
  -Hartree energ DENC   =     -1419.67335450
  -exchange      EXHF   =         0.00000000
  -V(xc)+E(xc)   XCENC  =       152.39188341
  PAW double counting   =     11142.77481587   -11109.56674866
  entropy T*S    EENTRO =        -0.00000000
  eigenvalues    EBANDS =      -209.88006942
  atomic energy  EATOM  =      2093.24427495
  ---------------------------------------------------
  free energy    TOTEN  =      -115.90988086 eV

  energy without entropy =     -115.90988086  energy(sigma->0) =     -115.90988086


--------------------------------------------------------------------------------------------------------




--------------------------------------- Iteration      1(   7)  ---------------------------------------


    POTLOK:  cpu time      0.0932: real time      0.0932
    SETDIJ:  cpu time      0.0044: real time      0.0044
    TRIAL :  cpu time      1.2892: real time      1.2898
    CORREC:  cpu time      0.7410: real time      0.7416
    CHARGE:  cpu time      0.0701: real time      0.0701
    --------------------------------------------
      LOOP:  cpu time      2.2268: real time      2.2284

 eigenvalue-minimisations  :     0
 total energy-change (2. order) :-0.7420305E+01  (-0.7476521E+00)
 number of electron      56.0000000 magnetization 
 augmentation part       -0.0744241 magnetization 

 Free energy of the ion-electron system (eV)
  ---------------------------------------------------
  alpha Z        PSCENC =        56.89320909
  Ewald energy   TEWEN  =      -822.09389158
  -Hartree energ DENC   =     -1269.61320488
  -exchange      EXHF   =         0.00000000
  -V(xc)+E(xc)   XCENC  =       146.20449327
  PAW double counting   =     20212.47144892   -20177.69590172
  entropy T*S    EENTRO =        -0.00000000
  eigenvalues    EBANDS =      -362.74061365
  atomic energy  EATOM  =      2093.24427495
  ---------------------------------------------------
  free energy    TOTEN  =      -123.33018561 eV

  energy without entropy =     -123.33018561  energy(sigma->0) =     -123.33018561


--------------------------------------------------------------------------------------------------------




--------------------------------------- Iteration      1(   8)  ---------------------------------------


    POTLOK:  cpu time      0.0663: real time      0.0663
    SETDIJ:  cpu time      0.0046: real time      0.0046
    TRIAL :  cpu time      1.2654: real time      1.2664
    CORREC:  cpu time      0.7400: real time      0.7401
    CHARGE:  cpu time      0.0710: real time      0.0710
    --------------------------------------------
      LOOP:  cpu time      2.1616: real time      2.1782

 eigenvalue-minimisations  :     0
 total energy-change (2. order) :-0.7495726E+00  (-0.8240636E-01)
 number of electron      56.0000000 magnetization 
 augmentation part       -0.0737679 magnetization 

 Free energy of the ion-electron system (eV)
  ---------------------------------------------------
  alpha Z        PSCENC =        56.89320909
  Ewald energy   TEWEN  =      -822.09389158
  -Hartree energ DENC   =     -1266.53864501
  -exchange      EXHF   =         0.00000000
  -V(xc)+E(xc)   XCENC  =       145.71652825
  PAW double counting   =     15981.62639048   -15946.99972953
  entropy T*S    EENTRO =        -0.00000000
  eigenvalues    EBANDS =      -365.92789481
  atomic energy  EATOM  =      2093.24427495
  ---------------------------------------------------
  free energy    TOTEN  =      -124.07975818 eV

  energy without entropy =     -124.07975818  energy(sigma->0) =     -124.07975818


--------------------------------------------------------------------------------------------------------




--------------------------------------- Iteration      1(   9)  ---------------------------------------


    POTLOK:  cpu time      0.0671: real time      0.0672
    SETDIJ:  cpu time      0.0045: real time      0.0044
    TRIAL :  cpu time      1.2696: real time      1.2701
    CORREC:  cpu time      0.7392: real time      0.7397
    CHARGE:  cpu time      0.0712: real time      0.0712
    --------------------------------------------
      LOOP:  cpu time      2.1706: real time      2.1825

 eigenvalue-minimisations  :     0
 total energy-change (2. order) :-0.8252078E-01  (-0.1090386E-01)
 number of electron      56.0000000 magnetization 
 augmentation part       -0.0755134 magnetization 

 Free energy of the ion-electron system (eV)
  ---------------------------------------------------
  alpha Z        PSCENC =        56.89320909
  Ewald energy   TEWEN  =      -822.09389158
  -Hartree energ DENC   =     -1269.59143713
  -exchange      EXHF   =         0.00000000
  -V(xc)+E(xc)   XCENC  =       145.61710362
  PAW double counting   =     15100.96995384   -15066.39715979
  entropy T*S    EENTRO =        -0.00000000
  eigenvalues    EBANDS =      -362.80433195
  atomic energy  EATOM  =      2093.24427495
  ---------------------------------------------------
  free energy    TOTEN  =      -124.16227895 eV

  energy without entropy =     -124.16227895  energy(sigma->0) =     -124.16227895


--------------------------------------------------------------------------------------------------------




--------------------------------------- Iteration      1(  10)  ---------------------------------------


    POTLOK:  cpu time      0.0667: real time      0.0667
    SETDIJ:  cpu time      0.0044: real time      0.0044
    TRIAL :  cpu time      1.2617: real time      1.2623
    CORREC:  cpu time      0.7366: real time      0.7371
    CHARGE:  cpu time      0.0707: real time      0.0707
    --------------------------------------------
      LOOP:  cpu time      2.1693: real time      2.1708

 eigenvalue-minimisations  :     0
 total energy-change (2. order) :-0.1091757E-01  (-0.1022765E-02)
 number of electron      56.0000000 magnetization 
 augmentation part       -0.0752380 magnetization 

 Free energy of the ion-electron system (eV)
  ---------------------------------------------------
  alpha Z        PSCENC =        56.89320909
  Ewald energy   TEWEN  =      -822.09389158
  -Hartree energ DENC   =     -1268.35516955
  -exchange      EXHF   =         0.00000000
  -V(xc)+E(xc)   XCENC  =       145.52106063
  PAW double counting   =     15400.83277070   -15366.23612879
  entropy T*S    EENTRO =        -0.00000000
  eigenvalues    EBANDS =      -363.97932197
  atomic energy  EATOM  =      2093.24427495
  ---------------------------------------------------
  free energy    TOTEN  =      -124.17319653 eV

  energy without entropy =     -124.17319653  energy(sigma->0) =     -124.17319653


--------------------------------------------------------------------------------------------------------




--------------------------------------- Iteration      1(  11)  ---------------------------------------


    POTLOK:  cpu time      0.0668: real time      0.0668
    SETDIJ:  cpu time      0.0044: real time      0.0044
    TRIAL :  cpu time      1.2604: real time      1.2615
    CORREC:  cpu time      0.7399: real time      0.7404
    CHARGE:  cpu time      0.0704: real time      0.0704
    --------------------------------------------
      LOOP:  cpu time      2.1569: real time      2.1726

 eigenvalue-minimisations  :     0
 total energy-change (2. order) :-0.1025229E-02  (-0.1136820E-03)
 number of electron      56.0000000 magnetization 
 augmentation part       -0.0750767 magnetization 

 Free energy of the ion-electron system (eV)
  ---------------------------------------------------
  alpha Z        PSCENC =        56.89320909
  Ewald energy   TEWEN  =      -822.09389158
  -Hartree energ DENC   =     -1268.51851191
  -exchange      EXHF   =         0.00000000
  -V(xc)+E(xc)   XCENC  =       145.51339173
  PAW double counting   =     15437.17759653   -15402.58076055
  entropy T*S    EENTRO =        -0.00000000
  eigenvalues    EBANDS =      -363.80953000
  atomic energy  EATOM  =      2093.24427495
  ---------------------------------------------------
  free energy    TOTEN  =      -124.17422176 eV

  energy without entropy =     -124.17422176  energy(sigma->0) =     -124.17422176


--------------------------------------------------------------------------------------------------------




--------------------------------------- Iteration      1(  12)  ---------------------------------------


    POTLOK:  cpu time      0.0666: real time      0.0666
    SETDIJ:  cpu time      0.0044: real time      0.0044
    TRIAL :  cpu time      1.2607: real time      1.2614
    CORREC:  cpu time      0.7376: real time      0.7380
    CHARGE:  cpu time      0.0695: real time      0.0695
    --------------------------------------------
      LOOP:  cpu time      2.1519: real time      2.1696

 eigenvalue-minimisations  :     0
 total energy-change (2. order) :-0.1148970E-03  (-0.1484942E-04)
 number of electron      56.0000000 magnetization 
 augmentation part       -0.0750744 magnetization 

 Free energy of the ion-electron system (eV)
  ---------------------------------------------------
  alpha Z        PSCENC =        56.89320909
  Ewald energy   TEWEN  =      -822.09389158
  -Hartree energ DENC   =     -1268.39912911
  -exchange      EXHF   =         0.00000000
  -V(xc)+E(xc)   XCENC  =       145.50560252
  PAW double counting   =     15430.53449593   -15395.93735044
  entropy T*S    EENTRO =        -0.00000000
  eigenvalues    EBANDS =      -363.92154800
  atomic energy  EATOM  =      2093.24427495
  ---------------------------------------------------
  free energy    TOTEN  =      -124.17433665 eV

  energy without entropy =     -124.17433665  energy(sigma->0) =     -124.17433665


--------------------------------------------------------------------------------------------------------




--------------------------------------- Iteration      1(  13)  ---------------------------------------


    POTLOK:  cpu time      0.0668: real time      0.0668
    SETDIJ:  cpu time      0.0046: real time      0.0046
    TRIAL :  cpu time      1.2611: real time      1.2624
    CORREC:  cpu time      0.7467: real time      0.7468
    CHARGE:  cpu time      0.0738: real time      0.0738
    --------------------------------------------
      LOOP:  cpu time      2.1662: real time      2.1840

 eigenvalue-minimisations  :     0
 total energy-change (2. order) :-0.1483154E-04  (-0.1694790E-05)
 number of electron      56.0000000 magnetization 
 augmentation part       -0.0750879 magnetization 

 Free energy of the ion-electron system (eV)
  ---------------------------------------------------
  alpha Z        PSCENC =        56.89320909
  Ewald energy   TEWEN  =      -822.09389158
  -Hartree energ DENC   =     -1268.38053303
  -exchange      EXHF   =         0.00000000
  -V(xc)+E(xc)   XCENC  =       145.50494900
  PAW double counting   =     15429.27504996   -15394.67813768
  entropy T*S    EENTRO =        -0.00000000
  eigenvalues    EBANDS =      -363.93927218
  atomic energy  EATOM  =      2093.24427495
  ---------------------------------------------------
  free energy    TOTEN  =      -124.17435149 eV

  energy without entropy =     -124.17435149  energy(sigma->0) =     -124.17435149


--------------------------------------------------------------------------------------------------------




--------------------------------------- Iteration      1(  14)  ---------------------------------------


    POTLOK:  cpu time      0.0665: real time      0.0665
    SETDIJ:  cpu time      0.0044: real time      0.0044
    TRIAL :  cpu time      1.2604: real time      1.2614
    CORREC:  cpu time      0.7376: real time      0.7376
    CHARGE:  cpu time      0.0764: real time      0.0770
    --------------------------------------------
      LOOP:  cpu time      2.1600: real time      2.1751

 eigenvalue-minimisations  :     0
 total energy-change (2. order) :-0.1634366E-05  (-0.8283518E-07)
 number of electron      56.0000000 magnetization 
 augmentation part       -0.0750870 magnetization 

 Free energy of the ion-electron system (eV)
  ---------------------------------------------------
  alpha Z        PSCENC =        56.89320909
  Ewald energy   TEWEN  =      -822.09389158
  -Hartree energ DENC   =     -1268.39461890
  -exchange      EXHF   =         0.00000000
  -V(xc)+E(xc)   XCENC  =       145.50512923
  PAW double counting   =     15431.64715369   -15397.05024627
  entropy T*S    EENTRO =        -0.00000000
  eigenvalues    EBANDS =      -363.92536332
  atomic energy  EATOM  =      2093.24427495
  ---------------------------------------------------
  free energy    TOTEN  =      -124.17435312 eV

  energy without entropy =     -124.17435312  energy(sigma->0) =     -124.17435312


--------------------------------------------------------------------------------------------------------




--------------------------------------- Iteration      1(  15)  ---------------------------------------


    POTLOK:  cpu time      0.0923: real time      0.0923
    SETDIJ:  cpu time      0.0044: real time      0.0044
    TRIAL :  cpu time      1.2748: real time      1.2753
    CORREC:  cpu time      0.7408: real time      0.7413
    EDDIAG:  cpu time      0.6699: real time      0.6703
    CHARGE:  cpu time      0.0718: real time      0.0718
    --------------------------------------------
      LOOP:  cpu time      2.8664: real time      2.8851

 eigenvalue-minimisations  :     0
 total energy-change (2. order) :-0.8412098E-07  (-0.1386084E-07)
 number of electron      56.0000000 magnetization 
 augmentation part       -0.0750857 magnetization 

 Free energy of the ion-electron system (eV)
  ---------------------------------------------------
  alpha Z        PSCENC =        56.89320909
  Ewald energy   TEWEN  =      -822.09389158
  -Hartree energ DENC   =     -1268.39191515
  -exchange      EXHF   =         0.00000000
  -V(xc)+E(xc)   XCENC  =       145.50500770
  PAW double counting   =     15431.55173567   -15396.95479512
  entropy T*S    EENTRO =        -0.00000000
  eigenvalues    EBANDS =      -363.92797874
  atomic energy  EATOM  =      2093.24427495
  ---------------------------------------------------
  free energy    TOTEN  =      -124.17435320 eV

  energy without entropy =     -124.17435320  energy(sigma->0) =     -124.17435320


--------------------------------------------------------------------------------------------------------


  average scaling for gradient   1.2877


 average (electrostatic) potential at core
  the test charge radii are     0.4325  0.5770  0.5902
  (the norm of the test charge is              1.0000)
       1 -39.7061       2 -39.7061       3 -39.7056       4 -39.7061       5 -39.7061
       6 -39.7061       7 -39.7055       8 -39.7055       9 -39.7056      10 -39.7061
      11 -39.7056      12 -39.7055      13 -81.5291      14 -81.5291      15 -81.5292
      16 -81.5291      17 -81.5292      18 -81.5292      19 -97.5386      20 -97.5386
      21 -97.5386      22 -97.5386



 E-fermi :   1.4270     XC(G=0):  -8.2549     alpha+bet : -7.9003

 Fermi energy:         1.4270180078

 k-point     1 :       0.0000    0.0000    0.0000
  band No.  band energies     occupation 
      1     -19.0312      2.00000
      2     -15.9304      2.00000
      3     -15.9304      2.00000
      4     -15.9303      2.00000
      5     -11.1513      2.00000
      6     -11.1513      2.00000
      7      -9.7949      2.00000
      8      -9.7949      2.00000
      9      -9.7947      2.00000
     10      -8.1935      2.00000
     11      -5.6054      2.00000
     12      -5.6052      2.00000
     13      -5.6052      2.00000
     14      -5.5482      2.00000
     15      -5.5482      2.00000
     16      -5.5481      2.00000
     17      -3.2124      2.00000
     18      -3.2124      2.00000
     19      -2.6729      2.00000
     20      -2.6729      2.00000
     21      -2.6725      2.00000
     22      -2.4935      2.00000
     23      -2.4930      2.00000
     24      -2.4930      2.00000
     25      -2.1956      2.00000
     26       0.7105      2.00000
     27       0.7105      2.00000
     28       0.7108      2.00000
     29       5.9870      0.00000
     30       7.6852      0.00000
     31       7.6852      0.00000
     32       7.6854      0.00000
     33       8.6664      0.00000
     34       9.1909      0.00000
     35       9.1913      0.00000
     36       9.1913      0.00000
     37      10.2037      0.00000
     38      10.2037      0.00000
     39      10.4989      0.00000
     40      10.4989      0.00000
     41      10.4989      0.00000
     42      10.5710      0.00000
     43      10.5710      0.00000
     44      11.0735      0.00000
     45      11.0737      0.00000
     46      11.0737      0.00000
     47      13.1696      0.00000
     48      13.1696      0.00000
     49      13.1699      0.00000
     50      13.1831      0.00000
     51      13.1836      0.00000
     52      13.1836      0.00000
     53      13.4930      0.00000
     54      13.4930      0.00000
     55      16.2606      0.00000
     56      16.2607      0.00000
     57      16.2607      0.00000
     58      16.6539      0.00000
     59      16.6539      0.00000
     60      16.6544      0.00000
     61      17.0249      0.00000
     62      17.4245      0.00000
     63      17.4245      0.00000
     64      18.1898      0.00000
     65      18.1898      0.00000
     66      18.1898      0.00000
     67      19.2609      0.00000
     68      19.9670      0.00000
     69      19.9670      0.00000
     70      19.9672      0.00000
     71      20.0945      0.00000
     72      20.0945      0.00000
     73      20.0946      0.00000
     74      20.4458      0.00000
     75      22.4423      0.00000
     76      22.4423      0.00000
     77      23.5514      0.00000
     78      23.5514      0.00000
     79      23.5514      0.00000
     80      24.7414      0.00000
     81      24.7414      0.00000
     82      24.7416      0.00000
     83      25.1277      0.00000
     84      25.8853      0.00000
     85      26.2383      0.00000
     86      26.2385      0.00000
     87      26.2385      0.00000
     88      26.6388      0.00000
     89      26.6388      0.00000
     90      26.9110      0.00000
     91      26.9111      0.00000
     92      26.9111      0.00000
     93      27.4963      0.00000
     94      28.0666      0.00000
     95      28.0667      0.00000
     96      28.0667      0.00000
     97      28.3478      0.00000
     98      28.3478      0.00000
     99      28.3478      0.00000
    100      29.3962      0.00000
    101      29.3962      0.00000
    102      29.3962      0.00000
    103      29.8329      0.00000
    104      29.8329      0.00000
    105      29.8331      0.00000
    106      31.3560      0.00000
    107      31.3560      0.00000
    108      32.0184      0.00000
    109      32.0185      0.00000
    110      32.0185      0.00000
    111      32.5387      0.00000
    112      32.5387      0.00000
    113      33.5204      0.00000
    114      34.4423      0.00000
    115      34.4424      0.00000
    116      34.4424      0.00000
    117      35.9584      0.00000
    118      35.9586      0.00000
    119      35.9586      0.00000
    120      36.1852      0.00000
    121      36.1853      0.00000
    122      36.1855      0.00000
    123      37.5854      0.00000
    124      37.5855      0.00000
    125      37.5857      0.00000
    126      38.0453      0.00000
    127      38.0459      0.00000
    128      38.0548      0.00000

 k-point     2 :       0.2000    0.0000    0.0000
  band No.  band energies     occupation 
      1     -19.0193      2.00000
      2     -15.9589      2.00000
      3     -15.9391      2.00000
      4     -15.9337      2.00000
      5     -11.1618      2.00000
      6     -11.1159      2.00000
      7      -9.8298      2.00000
      8      -9.8146      2.00000
      9      -9.7738      2.00000
     10      -7.9823      2.00000
     11      -5.7673      2.00000
     12      -5.6704      2.00000
     13      -5.6125      2.00000
     14      -5.5596      2.00000
     15      -5.4900      2.00000
     16      -5.4401      2.00000
     17      -3.1722      2.00000
     18      -3.0192      2.00000
     19      -3.0041      2.00000
     20      -2.8360      2.00000
     21      -2.6891      2.00000
     22      -2.5298      2.00000
     23      -2.5164      2.00000
     24      -2.4994      2.00000
     25      -2.2133      2.00000
     26       0.6952      2.00000
     27       0.8184      2.00000
     28       0.9321      2.00000
     29       6.2722      0.00000
     30       7.1548      0.00000
     31       7.2612      0.00000
     32       7.8269      0.00000
     33       8.5247      0.00000
     34       9.2172      0.00000
     35       9.3158      0.00000
     36       9.7356      0.00000
     37       9.7584      0.00000
     38       9.8619      0.00000
     39      10.3662      0.00000
     40      10.3937      0.00000
     41      10.5864      0.00000
     42      10.6386      0.00000
     43      10.9251      0.00000
     44      11.1337      0.00000
     45      11.5485      0.00000
     46      12.0164      0.00000
     47      12.7962      0.00000
     48      12.9065      0.00000
     49      13.0943      0.00000
     50      13.1400      0.00000
     51      13.1703      0.00000
     52      13.2739      0.00000
     53      13.6594      0.00000
     54      13.8892      0.00000
     55      15.6982      0.00000
     56      15.7206      0.00000
     57      16.0797      0.00000
     58      16.1467      0.00000
     59      16.2467      0.00000
     60      16.3555      0.00000
     61      16.7499      0.00000
     62      17.3592      0.00000
     63      17.6760      0.00000
     64      17.8710      0.00000
     65      18.7829      0.00000
     66      18.8381      0.00000
     67      19.7059      0.00000
     68      19.9008      0.00000
     69      20.1245      0.00000
     70      20.3821      0.00000
     71      20.4848      0.00000
     72      20.7015      0.00000
     73      21.2069      0.00000
     74      21.3047      0.00000
     75      22.1181      0.00000
     76      22.1972      0.00000
     77      22.4764      0.00000
     78      23.2761      0.00000
     79      23.7284      0.00000
     80      23.7884      0.00000
     81      24.3287      0.00000
     82      24.3710      0.00000
     83      24.4732      0.00000
     84      24.8233      0.00000
     85      25.4166      0.00000
     86      25.4816      0.00000
     87      25.9636      0.00000
     88      25.9775      0.00000
     89      26.3398      0.00000
     90      26.5046      0.00000
     91      26.7517      0.00000
     92      27.4006      0.00000
     93      27.6827      0.00000
     94      27.7929      0.00000
     95      28.2809      0.00000
     96      28.3292      0.00000
     97      28.8564      0.00000
     98      29.2522      0.00000
     99      29.2923      0.00000
    100      29.4373      0.00000
    101      29.9350      0.00000
    102      30.0155      0.00000
    103      30.2833      0.00000
    104      30.7806      0.00000
    105      31.0462      0.00000
    106      31.8233      0.00000
    107      32.1436      0.00000
    108      32.2360      0.00000
    109      32.5453      0.00000
    110      32.5553      0.00000
    111      32.9121      0.00000
    112      33.0529      0.00000
    113      33.1489      0.00000
    114      33.8373      0.00000
    115      34.2698      0.00000
    116      34.3799      0.00000
    117      35.1043      0.00000
    118      35.2369      0.00000
    119      35.4143      0.00000
    120      35.5336      0.00000
    121      36.0082      0.00000
    122      36.5958      0.00000
    123      36.6891      0.00000
    124      37.2872      0.00000
    125      37.3471      0.00000
    126      37.4936      0.00000
    127      37.5506      0.00000
    128      37.9720      0.00000

 k-point     3 :       0.2000    0.0000   -0.2000
  band No.  band energies     occupation 
      1     -19.0193      2.00000
      2     -15.9589      2.00000
      3     -15.9391      2.00000
      4     -15.9336      2.00000
      5     -11.1618      2.00000
      6     -11.1159      2.00000
      7      -9.8297      2.00000
      8      -9.8147      2.00000
      9      -9.7738      2.00000
     10      -7.9823      2.00000
     11      -5.7672      2.00000
     12      -5.6703      2.00000
     13      -5.6126      2.00000
     14      -5.5595      2.00000
     15      -5.4900      2.00000
     16      -5.4402      2.00000
     17      -3.1722      2.00000
     18      -3.0192      2.00000
     19      -3.0043      2.00000
     20      -2.8360      2.00000
     21      -2.6890      2.00000
     22      -2.5298      2.00000
     23      -2.5160      2.00000
     24      -2.4997      2.00000
     25      -2.2133      2.00000
     26       0.6954      2.00000
     27       0.8183      2.00000
     28       0.9319      2.00000
     29       6.2722      0.00000
     30       7.1549      0.00000
     31       7.2611      0.00000
     32       7.8267      0.00000
     33       8.5247      0.00000
     34       9.2172      0.00000
     35       9.3160      0.00000
     36       9.7357      0.00000
     37       9.7582      0.00000
     38       9.8620      0.00000
     39      10.3662      0.00000
     40      10.3937      0.00000
     41      10.5865      0.00000
     42      10.6386      0.00000
     43      10.9251      0.00000
     44      11.1337      0.00000
     45      11.5485      0.00000
     46      12.0163      0.00000
     47      12.7965      0.00000
     48      12.9064      0.00000
     49      13.0944      0.00000
     50      13.1399      0.00000
     51      13.1701      0.00000
     52      13.2739      0.00000
     53      13.6593      0.00000
     54      13.8893      0.00000
     55      15.6983      0.00000
     56      15.7204      0.00000
     57      16.0798      0.00000
     58      16.1466      0.00000
     59      16.2467      0.00000
     60      16.3554      0.00000
     61      16.7499      0.00000
     62      17.3592      0.00000
     63      17.6762      0.00000
     64      17.8711      0.00000
     65      18.7829      0.00000
     66      18.8382      0.00000
     67      19.7058      0.00000
     68      19.9006      0.00000
     69      20.1244      0.00000
     70      20.3821      0.00000
     71      20.4847      0.00000
     72      20.7017      0.00000
     73      21.2070      0.00000
     74      21.3046      0.00000
     75      22.1180      0.00000
     76      22.1973      0.00000
     77      22.4763      0.00000
     78      23.2761      0.00000
     79      23.7284      0.00000
     80      23.7884      0.00000
     81      24.3287      0.00000
     82      24.3711      0.00000
     83      24.4732      0.00000
     84      24.8233      0.00000
     85      25.4166      0.00000
     86      25.4817      0.00000
     87      25.9636      0.00000
     88      25.9775      0.00000
     89      26.3397      0.00000
     90      26.5046      0.00000
     91      26.7517      0.00000
     92      27.4005      0.00000
     93      27.6828      0.00000
     94      27.7929      0.00000
     95      28.2810      0.00000
     96      28.3292      0.00000
     97      28.8563      0.00000
     98      29.2521      0.00000
     99      29.2923      0.00000
    100      29.4373      0.00000
    101      29.9350      0.00000
    102      30.0155      0.00000
    103      30.2834      0.00000
    104      30.7805      0.00000
    105      31.0463      0.00000
    106      31.8234      0.00000
    107      32.1437      0.00000
    108      32.2360      0.00000
    109      32.5452      0.00000
    110      32.5553      0.00000
    111      32.9120      0.00000
    112      33.0528      0.00000
    113      33.1489      0.00000
    114      33.8373      0.00000
    115      34.2697      0.00000
    116      34.3798      0.00000
    117      35.1041      0.00000
    118      35.2369      0.00000
    119      35.4144      0.00000
    120      35.5336      0.00000
    121      36.0082      0.00000
    122      36.5957      0.00000
    123      36.6892      0.00000
    124      37.2866      0.00000
    125      37.3471      0.00000
    126      37.4937      0.00000
    127      37.5505      0.00000
    128      37.9845      0.00000

 k-point     4 :       0.4000    0.0000    0.0000
  band No.  band energies     occupation 
      1     -18.9996      2.00000
      2     -16.0051      2.00000
      3     -15.9530      2.00000
      4     -15.9390      2.00000
      5     -11.1793      2.00000
      6     -11.0543      2.00000
      7      -9.8895      2.00000
      8      -9.8348      2.00000
      9      -9.7407      2.00000
     10      -7.5893      2.00000
     11      -6.0023      2.00000
     12      -5.8588      2.00000
     13      -5.5805      2.00000
     14      -5.4697      2.00000
     15      -5.3914      2.00000
     16      -5.3375      2.00000
     17      -3.5582      2.00000
     18      -3.1591      2.00000
     19      -3.0360      2.00000
     20      -2.8476      2.00000
     21      -2.6172      2.00000
     22      -2.5968      2.00000
     23      -2.5489      2.00000
     24      -2.5031      2.00000
     25      -2.2126      2.00000
     26       0.6685      2.00000
     27       0.9447      2.00000
     28       1.2917      2.00000
     29       6.3582      0.00000
     30       6.8170      0.00000
     31       7.2051      0.00000
     32       7.8372      0.00000
     33       8.4296      0.00000
     34       8.9496      0.00000
     35       9.0473      0.00000
     36       9.3442      0.00000
     37       9.9287      0.00000
     38      10.1863      0.00000
     39      10.2892      0.00000
     40      10.4145      0.00000
     41      10.6064      0.00000
     42      11.1285      0.00000
     43      11.5183      0.00000
     44      11.7328      0.00000
     45      11.7757      0.00000
     46      11.9422      0.00000
     47      12.4219      0.00000
     48      12.6582      0.00000
     49      12.7984      0.00000
     50      13.2709      0.00000
     51      13.4173      0.00000
     52      13.4761      0.00000
     53      13.9957      0.00000
     54      14.2006      0.00000
     55      14.8374      0.00000
     56      15.1841      0.00000
     57      15.3122      0.00000
     58      15.7817      0.00000
     59      16.1790      0.00000
     60      16.6937      0.00000
     61      16.7793      0.00000
     62      17.3361      0.00000
     63      17.8820      0.00000
     64      18.6216      0.00000
     65      19.0897      0.00000
     66      19.4199      0.00000
     67      19.6264      0.00000
     68      20.2552      0.00000
     69      20.3245      0.00000
     70      20.6247      0.00000
     71      20.7794      0.00000
     72      20.9646      0.00000
     73      21.1331      0.00000
     74      21.1719      0.00000
     75      21.4479      0.00000
     76      22.2662      0.00000
     77      22.4231      0.00000
     78      23.0125      0.00000
     79      23.0615      0.00000
     80      23.1692      0.00000
     81      23.3289      0.00000
     82      24.0888      0.00000
     83      24.0958      0.00000
     84      24.3658      0.00000
     85      25.1559      0.00000
     86      25.3279      0.00000
     87      25.5075      0.00000
     88      26.0788      0.00000
     89      26.1246      0.00000
     90      26.5350      0.00000
     91      26.7358      0.00000
     92      27.1674      0.00000
     93      27.4693      0.00000
     94      27.7200      0.00000
     95      28.0578      0.00000
     96      29.1217      0.00000
     97      29.4657      0.00000
     98      29.7058      0.00000
     99      29.9474      0.00000
    100      30.2071      0.00000
    101      30.5434      0.00000
    102      30.7309      0.00000
    103      31.0555      0.00000
    104      31.1895      0.00000
    105      31.5315      0.00000
    106      31.6385      0.00000
    107      31.9941      0.00000
    108      32.4760      0.00000
    109      32.5459      0.00000
    110      33.2641      0.00000
    111      33.3545      0.00000
    112      33.8028      0.00000
    113      33.8596      0.00000
    114      33.9208      0.00000
    115      34.0775      0.00000
    116      34.3990      0.00000
    117      34.5313      0.00000
    118      35.1037      0.00000
    119      35.1782      0.00000
    120      35.2829      0.00000
    121      35.8368      0.00000
    122      35.9211      0.00000
    123      36.5894      0.00000
    124      36.6670      0.00000
    125      37.2642      0.00000
    126      37.3190      0.00000
    127      37.7896      0.00000
    128      38.1255      0.00000

 k-point     5 :       0.4000    0.0000   -0.4000
[...]
     79      22.7627      0.00000
     80      22.8790      0.00000
     81      23.9346      0.00000
     82      24.5613      0.00000
     83      24.5613      0.00000
     84      25.1382      0.00000
     85      25.4672      0.00000
     86      25.4672      0.00000
     87      25.5297      0.00000
     88      26.3820      0.00000
     89      26.3820      0.00000
     90      26.5419      0.00000
     91      27.9410      0.00000
     92      27.9411      0.00000
     93      27.9784      0.00000
     94      28.5974      0.00000
     95      28.8229      0.00000
     96      28.8229      0.00000
     97      29.1673      0.00000
     98      29.6248      0.00000
     99      29.6249      0.00000
    100      30.6919      0.00000
    101      30.6919      0.00000
    102      30.7468      0.00000
    103      30.9765      0.00000
    104      30.9766      0.00000
    105      31.2702      0.00000
    106      32.0140      0.00000
    107      32.2915      0.00000
    108      32.2915      0.00000
    109      32.2987      0.00000
    110      32.5715      0.00000
    111      32.5716      0.00000
    112      33.2537      0.00000
    113      33.2537      0.00000
    114      33.5038      0.00000
    115      34.4018      0.00000
    116      34.4019      0.00000
    117      34.5879      0.00000
    118      34.8169      0.00000
    119      34.8170      0.00000
    120      35.1338      0.00000
    121      35.8953      0.00000
    122      35.8953      0.00000
    123      36.1323      0.00000
    124      36.6742      0.00000
    125      36.6743      0.00000
    126      37.5313      0.00000
    127      37.5328      0.00000
    128      37.5751      0.00000

 k-point    18 :       0.4000    0.4000    0.4000
  band No.  band energies     occupation 
      1     -18.9852      2.00000
      2     -15.9871      2.00000
      3     -15.9871      2.00000
      4     -15.9562      2.00000
      5     -11.2311      2.00000
      6     -11.2311      2.00000
      7      -9.7536      2.00000
      8      -9.7093      2.00000
      9      -9.7093      2.00000
     10      -7.5125      2.00000
     11      -5.7229      2.00000
     12      -5.7131      2.00000
     13      -5.7131      2.00000
     14      -5.3421      2.00000
     15      -5.3421      2.00000
     16      -5.2981      2.00000
     17      -3.5923      2.00000
     18      -3.5923      2.00000
     19      -3.2543      2.00000
     20      -2.9594      2.00000
     21      -2.9594      2.00000
     22      -2.5056      2.00000
     23      -2.5056      2.00000
     24      -2.4924      2.00000
     25      -2.4755      2.00000
     26       1.0227      2.00000
     27       1.3342      2.00000
     28       1.3342      2.00000
     29       6.6764      0.00000
     30       7.0425      0.00000
     31       7.0425      0.00000
     32       7.6479      0.00000
     33       7.6479      0.00000
     34       8.3592      0.00000
     35       9.1585      0.00000
     36       9.1585      0.00000
     37       9.2135      0.00000
     38      10.7032      0.00000
     39      11.0611      0.00000
     40      11.0611      0.00000
     41      11.1506      0.00000
     42      11.1506      0.00000
     43      11.1832      0.00000
     44      11.4102      0.00000
     45      11.4102      0.00000
     46      12.1101      0.00000
     47      12.4163      0.00000
     48      12.4163      0.00000
     49      12.9842      0.00000
     50      13.4467      0.00000
     51      14.0057      0.00000
     52      14.0057      0.00000
     53      14.4608      0.00000
     54      14.4608      0.00000
     55      14.5572      0.00000
     56      15.1496      0.00000
     57      15.1496      0.00000
     58      15.7839      0.00000
     59      16.0356      0.00000
     60      17.0464      0.00000
     61      17.0464      0.00000
     62      17.5214      0.00000
     63      18.3061      0.00000
     64      18.3350      0.00000
     65      18.3350      0.00000
     66      19.0779      0.00000
     67      19.0779      0.00000
     68      19.1738      0.00000
     69      19.9629      0.00000
     70      20.2541      0.00000
     71      20.2541      0.00000
     72      20.9328      0.00000
     73      20.9366      0.00000
     74      20.9366      0.00000
     75      21.5051      0.00000
     76      22.0389      0.00000
     77      22.0389      0.00000
     78      22.7626      0.00000
     79      22.7626      0.00000
     80      22.8790      0.00000
     81      23.9345      0.00000
     82      24.5612      0.00000
     83      24.5612      0.00000
     84      25.1385      0.00000
     85      25.4672      0.00000
     86      25.4672      0.00000
     87      25.5297      0.00000
     88      26.3821      0.00000
     89      26.3821      0.00000
     90      26.5418      0.00000
     91      27.9410      0.00000
     92      27.9410      0.00000
     93      27.9783      0.00000
     94      28.5975      0.00000
     95      28.8228      0.00000
     96      28.8228      0.00000
     97      29.1673      0.00000
     98      29.6248      0.00000
     99      29.6248      0.00000
    100      30.6918      0.00000
    101      30.6918      0.00000
    102      30.7467      0.00000
    103      30.9766      0.00000
    104      30.9766      0.00000
    105      31.2702      0.00000
    106      32.0140      0.00000
    107      32.2915      0.00000
    108      32.2915      0.00000
    109      32.2987      0.00000
    110      32.5715      0.00000
    111      32.5715      0.00000
    112      33.2537      0.00000
    113      33.2537      0.00000
    114      33.5038      0.00000
    115      34.4019      0.00000
    116      34.4019      0.00000
    117      34.5879      0.00000
    118      34.8169      0.00000
    119      34.8169      0.00000
    120      35.1336      0.00000
    121      35.8953      0.00000
    122      35.8954      0.00000
    123      36.1322      0.00000
    124      36.6742      0.00000
    125      36.6743      0.00000
    126      37.5315      0.00000
    127      37.5329      0.00000
    128      37.5751      0.00000

 k-point    19 :      -0.4000    0.4000    0.4000
  band No.  band energies     occupation 
      1     -18.9800      2.00000
      2     -15.9842      2.00000
      3     -15.9770      2.00000
      4     -15.9769      2.00000
      5     -11.3160      2.00000
      6     -11.2773      2.00000
      7      -9.6938      2.00000
      8      -9.6533      2.00000
      9      -9.6532      2.00000
     10      -7.5355      2.00000
     11      -5.7022      2.00000
     12      -5.5858      2.00000
     13      -5.5857      2.00000
     14      -5.3174      2.00000
     15      -5.2956      2.00000
     16      -5.2955      2.00000
     17      -3.6283      2.00000
     18      -3.4886      2.00000
     19      -3.4884      2.00000
     20      -3.2826      2.00000
     21      -3.0645      2.00000
     22      -2.6219      2.00000
     23      -2.4754      2.00000
     24      -2.4750      2.00000
     25      -2.4611      2.00000
     26       1.3352      2.00000
     27       1.3553      2.00000
     28       1.3556      2.00000
     29       7.0326      0.00000
     30       7.0758      0.00000
     31       7.3003      0.00000
     32       7.3004      0.00000
     33       7.4450      0.00000
     34       8.3221      0.00000
     35       8.6955      0.00000
     36       8.9822      0.00000
     37       8.9824      0.00000
     38      10.8058      0.00000
     39      10.9697      0.00000
     40      10.9699      0.00000
     41      11.0335      0.00000
     42      11.2462      0.00000
     43      11.2466      0.00000
     44      11.5665      0.00000
     45      11.5953      0.00000
     46      11.6681      0.00000
     47      12.9820      0.00000
     48      13.0114      0.00000
     49      13.0115      0.00000
     50      14.1346      0.00000
     51      14.2077      0.00000
     52      14.2288      0.00000
     53      14.2289      0.00000
     54      14.7400      0.00000
     55      14.8105      0.00000
     56      14.8107      0.00000
     57      15.1102      0.00000
     58      15.6560      0.00000
     59      15.7265      0.00000
     60      16.8956      0.00000
     61      16.8957      0.00000
     62      17.1223      0.00000
     63      18.1772      0.00000
     64      18.6420      0.00000
     65      18.6421      0.00000
     66      18.8273      0.00000
     67      19.1058      0.00000
     68      19.2120      0.00000
     69      19.2120      0.00000
     70      19.7787      0.00000
     71      20.0785      0.00000
     72      20.8440      0.00000
     73      20.8441      0.00000
     74      21.1989      0.00000
     75      21.5544      0.00000
     76      21.9815      0.00000
     77      22.1180      0.00000
     78      22.1181      0.00000
     79      22.7127      0.00000
     80      22.8665      0.00000
     81      23.9374      0.00000
     82      23.9375      0.00000
     83      24.6664      0.00000
     84      25.2505      0.00000
     85      25.5860      0.00000
     86      25.5860      0.00000
     87      25.8424      0.00000
     88      26.8183      0.00000
     89      27.2178      0.00000
     90      27.8293      0.00000
     91      27.8294      0.00000
     92      28.2156      0.00000
     93      28.5371      0.00000
     94      28.7420      0.00000
     95      28.7420      0.00000
     96      29.6091      0.00000
     97      29.6091      0.00000
     98      29.7784      0.00000
     99      29.8559      0.00000
    100      30.4534      0.00000
    101      30.4534      0.00000
    102      30.4928      0.00000
    103      30.5949      0.00000
    104      31.5706      0.00000
    105      31.6449      0.00000
    106      31.6449      0.00000
    107      31.9357      0.00000
    108      31.9811      0.00000
    109      31.9812      0.00000
    110      32.3946      0.00000
    111      32.8442      0.00000
    112      32.8464      0.00000
    113      32.8464      0.00000
    114      33.4601      0.00000
    115      33.6601      0.00000
    116      34.0063      0.00000
    117      34.0064      0.00000
    118      34.2715      0.00000
    119      34.6420      0.00000
    120      34.9936      0.00000
    121      34.9937      0.00000
    122      35.6555      0.00000
    123      36.1043      0.00000
    124      36.8294      0.00000
    125      37.1264      0.00000
    126      37.1450      0.00000
    127      37.1518      0.00000
    128      37.3505      0.00000


--------------------------------------------------------------------------------------------------------


 soft charge-density along one line, spin component           1
         0         1         2         3         4         5         6         7         8         9
 total charge-density along one line

 pseudopotential strength for first ion, spin component:           1
 -2.510  -5.334   0.000  -0.000   0.000
 -5.334 -11.308   0.001  -0.001   0.001
  0.000   0.001  -1.408  -0.001   0.001
 -0.000  -0.001  -0.001  -1.408  -0.001
  0.000   0.001   0.001  -0.001  -1.408
 total augmentation occupancy for first ion, spin component:           1
  3.297  -0.438  -0.126   0.126  -0.126
 -0.438   0.071   0.017  -0.017   0.017
 -0.126   0.017   0.006  -0.005   0.004
  0.126  -0.017  -0.005   0.006  -0.004
 -0.126   0.017   0.004  -0.004   0.006


------------------------ aborting loop because EDIFF is reached ----------------------------------------


    FORLOC:  cpu time      0.0044: real time      0.0044
    FORNL :  cpu time      0.3021: real time      0.3027
    FORCOR:  cpu time      0.0694: real time      0.0696
    OFIELD:  cpu time      0.0036: real time      0.0039
 WARNING: Using user supplied parameters
     VDW_S8 = 1.682
     VDW_SR = 1.094
     because the xc functional is not supported. Required parameters not
     defined in the INCAR file will be replaced with PBE defaults ones.


 ---------------------------------------------------------------------------------------------

         DFTD3 V3.0 Rev 1        
 IVDW         = 11
 DF unknown   
 parameters
 VDW_S6       =    1.0000
 VDW_S8       =    1.6820
 VDW_SR       =    1.0940
 rs18     =    1.0000
 alpha6   =   14.0000
 alpha8   =   16.0000
 k1-k3    =   16.0000    1.3333   -4.0000
 VDW_RADIUS   =   50.2022 A
 VDW_CNRADIUS =   21.1671 A
 Edisp (eV)   -2.01907

 E6    (eV) :    -0.9994
 E8    (eV) :    -1.0196
 % E8        : 50.50
    FORVDW:  cpu time      0.4261: real time      0.4289

 VOLUME and BASIS-vectors are now :
 -----------------------------------------------------------------------------
  energy-cutoff  :     1000.00
  volume of cell :      168.04
      direct lattice vectors                 reciprocal lattice vectors
    -3.476325100  3.476325100  3.476325100    -0.000000000  0.143830046  0.143830046
     3.476325100 -3.476325100  3.476325100     0.143830046 -0.000000000  0.143830046
     3.476325100  3.476325100 -3.476325100     0.143830046  0.143830046 -0.000000000

  length of vectors
     6.021171697  6.021171697  6.021171697     0.203406402  0.203406402  0.203406402


 FORCES acting on ions:
    Electron-Ion                     Ewald-Force                    Non-Local-Force
 -----------------------------------------------------------------------------------------------
   -.493E+02 -.277E+02 0.277E+02   0.527E+02 0.310E+02 -.310E+02   -.340E+01 -.339E+01 0.339E+01
   0.277E+02 -.493E+02 -.277E+02   -.310E+02 0.527E+02 0.310E+02   0.339E+01 -.340E+01 -.339E+01
   0.493E+02 -.277E+02 -.277E+02   -.527E+02 0.310E+02 0.310E+02   0.340E+01 -.338E+01 -.338E+01
   0.277E+02 -.277E+02 -.493E+02   -.310E+02 0.310E+02 0.527E+02   0.339E+01 -.339E+01 -.340E+01
   -.277E+02 -.493E+02 0.277E+02   0.310E+02 0.527E+02 -.310E+02   -.339E+01 -.340E+01 0.339E+01
   -.277E+02 0.277E+02 -.493E+02   0.310E+02 -.310E+02 0.527E+02   -.339E+01 0.339E+01 -.340E+01
   0.493E+02 0.277E+02 0.277E+02   -.527E+02 -.310E+02 -.310E+02   0.340E+01 0.338E+01 0.338E+01
   0.277E+02 0.493E+02 0.277E+02   -.310E+02 -.527E+02 -.310E+02   0.338E+01 0.340E+01 0.338E+01
   -.277E+02 0.493E+02 -.277E+02   0.310E+02 -.527E+02 0.310E+02   -.338E+01 0.340E+01 -.338E+01
   -.493E+02 0.277E+02 -.277E+02   0.527E+02 -.310E+02 0.310E+02   -.340E+01 0.339E+01 -.339E+01
   -.277E+02 -.277E+02 0.493E+02   0.310E+02 0.310E+02 -.527E+02   -.338E+01 -.338E+01 0.340E+01
   0.277E+02 0.277E+02 0.493E+02   -.310E+02 -.310E+02 -.527E+02   0.338E+01 0.338E+01 0.340E+01
   -.191E+03 0.157E-03 0.157E-03   0.198E+03 -.191E-03 -.191E-03   -.605E+01 -.321E-05 -.321E-05
   0.157E-03 -.191E+03 0.157E-03   -.191E-03 0.198E+03 -.191E-03   -.321E-05 -.605E+01 -.321E-05
   0.191E+03 -.103E-03 -.103E-03   -.198E+03 0.534E-04 0.534E-04   0.604E+01 -.165E-03 -.165E-03
   0.157E-03 0.157E-03 -.191E+03   -.191E-03 -.191E-03 0.198E+03   -.321E-05 -.321E-05 -.605E+01
   -.103E-03 0.191E+03 -.103E-03   0.534E-04 -.198E+03 0.534E-04   -.165E-03 0.604E+01 -.165E-03
   -.103E-03 -.103E-03 0.191E+03   0.534E-04 0.534E-04 -.198E+03   -.165E-03 -.165E-03 0.604E+01
   -.133E+03 -.133E+03 -.133E+03   0.151E+03 0.151E+03 0.151E+03   -.173E+02 -.173E+02 -.173E+02
   0.133E+03 -.133E+03 0.133E+03   -.151E+03 0.151E+03 -.151E+03   0.173E+02 -.173E+02 0.173E+02
   0.133E+03 0.133E+03 -.133E+03   -.151E+03 -.151E+03 0.151E+03   0.173E+02 0.173E+02 -.173E+02
   -.133E+03 0.133E+03 0.133E+03   0.151E+03 -.151E+03 -.151E+03   -.173E+02 0.173E+02 0.173E+02
 -----------------------------------------------------------------------------------------------
   0.218E-02 0.218E-02 0.218E-02   -.284E-13 0.000E+00 0.000E+00   -.227E-02 -.227E-02 -.227E-02


 POSITION                                       TOTAL-FORCE (eV/Angst)
 -----------------------------------------------------------------------------------
      2.63776      0.95716     -0.31904        -0.018744     -0.107125      0.107185
     -0.31904      2.63776      0.95716         0.107185     -0.018744     -0.107125
      4.95296      0.95716      0.95716         0.019986     -0.107951     -0.107951
     -0.31904      0.95716      2.63776         0.107185     -0.107125     -0.018744
      0.95716      2.63776     -0.31904        -0.107125     -0.018744      0.107185
      0.95716     -0.31904      2.63776        -0.107125      0.107185     -0.018744
      1.47666      3.15726      3.15726         0.020129      0.108215      0.108215
      3.15726      1.47666      3.15726         0.108215      0.020129      0.108215
      0.95716      4.95296      0.95716        -0.107951      0.019986     -0.107951
      2.63776     -0.31904      0.95716        -0.018744      0.107185     -0.107125
      0.95716      0.95716      4.95296        -0.107951     -0.107951      0.019986
      3.15726      3.15726      1.47666         0.108215      0.108215      0.020129
      2.00886      0.31906      0.31906         0.626401     -0.000034     -0.000034
      0.31906      2.00886      0.31906        -0.000034      0.626401     -0.000034
      5.58196      0.31906      0.31906        -0.630319     -0.000206     -0.000206
      0.31906      0.31906      2.00886        -0.000034     -0.000034      0.626401
      0.31906      5.58196      0.31906        -0.000206     -0.630319     -0.000206
      0.31906      0.31906      5.58196        -0.000206     -0.000206     -0.630319
      1.18656      1.18656      1.18656         0.220414      0.220414      0.220414
      2.92786     -2.28974      2.92786        -0.219647      0.220002     -0.219647
      2.92786      2.92786     -2.28974        -0.219647     -0.219647      0.220002
     -2.28974      2.92786      2.92786         0.220002     -0.219647     -0.219647
 -----------------------------------------------------------------------------------
    total drift:                               -0.000091     -0.000091     -0.000091


--------------------------------------------------------------------------------------------------------



  FREE ENERGIE OF THE ION-ELECTRON SYSTEM (eV)
  ---------------------------------------------------
  free  energy   TOTEN  =      -126.19342271 eV

  energy  without entropy=     -126.19342271  energy(sigma->0) =     -126.19342271



--------------------------------------------------------------------------------------------------------


    POTLOK:  cpu time      0.0764: real time      0.0764


--------------------------------------------------------------------------------------------------------


 stress matrix after NEB project (eV)
     -1.94010      0.00001      0.00001
      0.00001     -1.94010      0.00001
      0.00001      0.00001     -1.94010
  FORCES: max atom, RMS     0.630320    0.383284
  FORCE total and by dimension    1.797763    0.630319
  Stress total and by dimension    3.360344    1.940096
     LOOP+:  cpu time    150.5697: real time    150.8393
    4ORBIT:  cpu time      0.0000: real time      0.0000

 total amount of memory used by VASP MPI-rank0    71114. kBytes
=======================================================================

   base      :      30000. kBytes
   nonl-proj :      24576. kBytes
   fftplans  :       4451. kBytes
   grid      :       6336. kBytes
   one-center:         33. kBytes
   wavefun   :       5718. kBytes

  
  
 General timing and accounting informations for this job:
 ========================================================
  
                  Total CPU time used (sec):      172.733
                            User time (sec):      170.990
                          System time (sec):        1.743
                         Elapsed time (sec):      176.663
  
                   Maximum memory used (kb):      312468.
                   Average memory used (kb):          N/A
  
                          Minor page faults:        49882
                          Major page faults:         1183
                 Voluntary context switches:         5817
