 vasp.6.4.1 05Apr23 (build Jun  6 2023 14:36:51) complex                         
 executed on        HPECrayEX_GCC date 2024.08.20  15:02:38
 running  256 mpi-ranks, with    1 threads/rank, on    2 nodes
 distrk:  each k-point on  256 cores,    1 groups
 distr:  one band on NCORE=  64 cores,    4 groups


--------------------------------------------------------------------------------------------------------


 INCAR:
   ALGO = Conjugate
   NPAR = 4
   ISMEAR = 0
   SIGMA = 0.01
   PREC = Accurate
   EDIFF = 1E-7
   ENCUT = 1000
   ISIF = 0
   GGA = OR
   LUSE_VDW = .TRUE.
   AGGAC = 0.0000
   LASPH = .TRUE.
   LWAVE = .FALSE.
   LCHARGE = .FALSE.

 POTCAR:    PAW_PBE H_h 06Feb2004                 
 POTCAR:    PAW_PBE C_h 06Feb2004                 
 POTCAR:    PAW_PBE N_h 06Feb2004                 
 -----------------------------------------------------------------------------
|                                                                             |
|               ----> ADVICE to this user running VASP <----                  |
|                                                                             |
|     You have switched on vdW-DFT.                                           |
|     This routine was written and supplied by Jiri Klimes. We recommend      |
|     that you carefully read and cite the following publications:            |
|       J. Klimes, D.R. Bowler, A. Michelides                                 |
|          J. Phys.: Cond Matt. 22 022201 (2010)                              |
|       J. Klimes, D.R. Bowler, A. Michelides                                 |
|          Phys. Rev. B. 83, 195131 (2011)                                    |
|     and references therein.                                                 |
|                                                                             |
 -----------------------------------------------------------------------------

 POTCAR:    PAW_PBE H_h 06Feb2004                 
   VRHFIN =H: ultrasoft test                                                                        
   LEXCH  = PE                                                                                      
   EATOM  =    12.4884 eV,    0.9179 Ry                                                             
                                                                                                    
   TITEL  = PAW_PBE H_h 06Feb2004                                                                   
   LULTRA =        F    use ultrasoft PP ?                                                          
   IUNSCR =        0    unscreen: 0-lin 1-nonlin 2-no                                               
   RPACOR =    0.000    partial core radius                                                         
   POMASS =    1.000; ZVAL   =    1.000    mass and valenz                                          
   RCORE  =    0.800    outmost cutoff radius                                                       
   RWIGS  =    0.700; RWIGS  =    0.370    wigner-seitz radius (au A)                               
   ENMAX  =  700.000; ENMIN  =  350.000 eV                                                          
   RCLOC  =    0.701    cutoff for local pot                                                        
   LCOR   =        T    correct aug charges                                                         
   LPAW   =        T    paw PP                                                                      
   EAUG   = 1000.000                                                                                
   RMAX   =    0.819    core radius for proj-oper                                                   
   RAUG   =    1.000    factor for augmentation sphere                                              
   RDEP   =    0.817    radius for radial grids                                                     
   RDEPT  =    0.817    core radius for aug-charge                                                  
                                                                                                    
   Atomic configuration                                                                             
    2 entries                                                                                       
     n  l   j            E        occ.                                                              
     1  0  0.50        -6.4927   1.0000                                                             
     2  1  0.50        -3.4015   0.0000                                                             
   Description                                                                                      
     l       E           TYP  RCUT    TYP  RCUT                                                     
     0     -6.4927493     23  0.800                                                                 
     0      6.8029130     23  0.800                                                                 
     1     -6.8029130     23  0.800                                                                 
  local pseudopotential read in
  atomic valenz-charges read in
  non local Contribution for L=           0  read in
    real space projection operators read in
  non local Contribution for L=           0  read in
    real space projection operators read in
  non local Contribution for L=           1  read in
    real space projection operators read in
    PAW grid and wavefunctions read in

   number of l-projection  operators is LMAX  =           3
   number of lm-projection operators is LMMAX =           5

 POTCAR:    PAW_PBE C_h 06Feb2004                 
   VRHFIN =C: s2p2                                                                                  
   LEXCH  = PE                                                                                      
   EATOM  =   147.1560 eV,   10.8157 Ry                                                             
                                                                                                    
   TITEL  = PAW_PBE C_h 06Feb2004                                                                   
   LULTRA =        F    use ultrasoft PP ?                                                          
   IUNSCR =        1    unscreen: 0-lin 1-nonlin 2-no                                               
   RPACOR =    0.800    partial core radius                                                         
   POMASS =   12.011; ZVAL   =    4.000    mass and valenz                                          
   RCORE  =    1.100    outmost cutoff radius                                                       
   RWIGS  =    1.630; RWIGS  =    0.863    wigner-seitz radius (au A)                               
   ENMAX  =  700.000; ENMIN  =  500.000 eV                                                          
   ICORE  =        2    local potential                                                             
   LCOR   =        T    correct aug charges                                                         
   LPAW   =        T    paw PP                                                                      
   EAUG   =  946.768                                                                                
   DEXC   =    0.000                                                                                
   RMAX   =    1.128    core radius for proj-oper                                                   
   RAUG   =    1.300    factor for augmentation sphere                                              
   RDEP   =    1.162    radius for radial grids                                                     
   RDEPT  =    1.088    core radius for aug-charge                                                  
                                                                                                    
   Atomic configuration                                                                             
    4 entries                                                                                       
     n  l   j            E        occ.                                                              
     1  0  0.50      -273.3789   2.0000                                                             
     2  0  0.50       -13.7508   2.0000                                                             
     2  1  0.50        -5.2854   2.0000                                                             
     3  2  1.50        -5.4423   0.0000                                                             
   Description                                                                                      
     l       E           TYP  RCUT    TYP  RCUT                                                     
     0    -13.7508458     23  1.100                                                                 
     0     -8.2022199     23  1.100                                                                 
     1     -5.2854383     23  1.100                                                                 
     1      1.1560700     23  1.100                                                                 
     2     -5.4423304      7  1.100                                                                 
  local pseudopotential read in
  partial core-charges read in
  partial kinetic energy density read in
  atomic valenz-charges read in
  non local Contribution for L=           0  read in
    real space projection operators read in
  non local Contribution for L=           0  read in
    real space projection operators read in
  non local Contribution for L=           1  read in
    real space projection operators read in
  non local Contribution for L=           1  read in
    real space projection operators read in
    PAW grid and wavefunctions read in

   number of l-projection  operators is LMAX  =           4
   number of lm-projection operators is LMMAX =           8

 POTCAR:    PAW_PBE N_h 06Feb2004                 
   VRHFIN =N: s2p3                                                                                  
   LEXCH  = PE                                                                                      
   EATOM  =   264.5486 eV,   19.4438 Ry                                                             
                                                                                                    
   TITEL  = PAW_PBE N_h 06Feb2004                                                                   
   LULTRA =        F    use ultrasoft PP ?                                                          
   IUNSCR =        1    unscreen: 0-lin 1-nonlin 2-no                                               
   RPACOR =    0.800    partial core radius                                                         
   POMASS =   14.001; ZVAL   =    5.000    mass and valenz                                          
   RCORE  =    1.100    outmost cutoff radius                                                       
   RWIGS  =    1.480; RWIGS  =    0.783    wigner-seitz radius (au A)                               
   ENMAX  =  700.000; ENMIN  =  500.000 eV                                                          
   ICORE  =        2    local potential                                                             
   LCOR   =        T    correct aug charges                                                         
   LPAW   =        T    paw PP                                                                      
   EAUG   =  904.640                                                                                
   DEXC   =    0.000                                                                                
   RMAX   =    1.127    core radius for proj-oper                                                   
   RAUG   =    1.300    factor for augmentation sphere                                              
   RDEP   =    1.115    radius for radial grids                                                     
   RDEPT  =    1.106    core radius for aug-charge                                                  
                                                                                                    
   Atomic configuration                                                                             
    4 entries                                                                                       
     n  l   j            E        occ.                                                              
     1  0  0.50      -384.7179   2.0000                                                             
     2  0  0.50       -18.5828   2.0000                                                             
     2  1  0.50        -7.0898   3.0000                                                             
     3  2  1.50        -6.8029   0.0000                                                             
   Description                                                                                      
     l       E           TYP  RCUT    TYP  RCUT                                                     
     0    -18.5828117     23  1.100                                                                 
     0    -15.0750597     23  1.100                                                                 
     1     -7.0897851     23  1.100                                                                 
     1     -1.9663412     23  1.100                                                                 
     2     -6.8029130      7  1.100                                                                 
  local pseudopotential read in
  partial core-charges read in
  partial kinetic energy density read in
  kinetic energy density of atom read in
  atomic valenz-charges read in
  non local Contribution for L=           0  read in
    real space projection operators read in
  non local Contribution for L=           0  read in
    real space projection operators read in
  non local Contribution for L=           1  read in
    real space projection operators read in
  non local Contribution for L=           1  read in
    real space projection operators read in
    PAW grid and wavefunctions read in

   number of l-projection  operators is LMAX  =           4
   number of lm-projection operators is LMMAX =           8

 -----------------------------------------------------------------------------
|                                                                             |
|               ----> ADVICE to this user running VASP <----                  |
|                                                                             |
|     You have a (more or less) 'large supercell' and for larger cells it     |
|     might be more efficient to use real-space projection operators.         |
|     Therefore, try LREAL= Auto in the INCAR file.                           |
|     Mind: For very accurate calculation, you might also keep the            |
|     reciprocal projection scheme (i.e. LREAL=.FALSE.).                      |
|                                                                             |
 -----------------------------------------------------------------------------

 -----------------------------------------------------------------------------
|                                                                             |
|               ----> ADVICE to this user running VASP <----                  |
|                                                                             |
|     You enforced a specific xc type in the INCAR file but a different       |
|     type was found in the POTCAR file.                                      |
|     I HOPE YOU KNOW WHAT YOU ARE DOING!                                     |
|                                                                             |
 -----------------------------------------------------------------------------

  PAW_PBE H_h 06Feb2004                 :
 energy of atom  1       EATOM=  -12.4884
 kinetic energy error for atom=    0.0006 (will be added to EATOM!!)
  PAW_PBE C_h 06Feb2004                 :
 energy of atom  2       EATOM= -147.1560
 kinetic energy error for atom=    0.0031 (will be added to EATOM!!)
  PAW_PBE N_h 06Feb2004                 :
 energy of atom  3       EATOM= -264.5486
 kinetic energy error for atom=    0.0081 (will be added to EATOM!!)


 POSCAR:  H  C  N
  positions in cartesian coordinates
  No initial velocities read in
 exchange correlation table for  LEXCH =       41
   RHO(1)=    0.500       N(1)  =     2000
   RHO(2)=  100.500       N(2)  =     4000

 VTST: version 4.1, (05/19/21)

 CHAIN: initializing optimizer
 
 OPT: Using VASP Dynamics algorithm
 CHAIN: Read ICHAIN            0

 POSCAR:  H  C  N
  positions in cartesian coordinates
  No initial velocities read in



--------------------------------------------------------------------------------------------------------


 ion  position               nearest neighbor table
   1  0.092  0.334  0.517-  13 1.10
   2  0.517  0.092  0.334-  14 1.10
   3  0.275  0.850  0.850-  15 1.10
   4  0.517  0.334  0.092-  16 1.10
   5  0.334  0.092  0.517-  14 1.10
   6  0.334  0.517  0.092-  16 1.10
   7  0.908  0.666  0.666-  15 1.10
   8  0.666  0.908  0.666-  17 1.10
   9  0.850  0.275  0.850-  17 1.10
  10  0.092  0.517  0.334-  13 1.10
  11  0.850  0.850  0.275-  18 1.10
  12  0.666  0.666  0.908-  18 1.10
  13  0.092  0.335  0.335-  10 1.10   1 1.10  19 1.48  22 1.48
  14  0.335  0.092  0.335-   2 1.10   5 1.10  19 1.48  20 1.48
  15  0.092  0.849  0.849-   3 1.10   7 1.10  21 1.48  20 1.48
  16  0.335  0.335  0.092-   6 1.10   4 1.10  19 1.48  21 1.48
  17  0.849  0.092  0.849-   9 1.10   8 1.10  21 1.48  22 1.48
  18  0.849  0.849  0.092-  11 1.10  12 1.10  22 1.48  20 1.48
  19  0.341  0.341  0.341-  13 1.48  14 1.48  16 1.48
  20  0.092  0.842  0.092-  15 1.48  18 1.48  14 1.48
  21  0.092  0.092  0.842-  15 1.48  17 1.48  16 1.48
  22  0.842  0.092  0.092-  17 1.48  18 1.48  13 1.48

  LATTYP: Found a body centered cubic cell.
 ALAT       =     6.9526502000
  
  Lattice vectors:
  
 A1 = (  -3.4763251000,   3.4763251000,   3.4763251000)
 A2 = (   3.4763251000,  -3.4763251000,   3.4763251000)
 A3 = (   3.4763251000,   3.4763251000,  -3.4763251000)


Analysis of symmetry for initial positions (statically):
=====================================================================
 Subroutine PRICEL returns:
 Original cell was already a primitive cell.
 

 Routine SETGRP: Setting up the symmetry group for a 
 body centered cubic supercell.


 Subroutine GETGRP returns: Found 24 space group operations
 (whereof  6 operations were pure point group operations)
 out of a pool of 48 trial point group operations.


The static configuration has the point symmetry C_3v.
 The point group associated with its full space group is T_d .


Analysis of symmetry for dynamics (positions and initial velocities):
=====================================================================
 Subroutine PRICEL returns:
 Original cell was already a primitive cell.
 

 Routine SETGRP: Setting up the symmetry group for a 
 body centered cubic supercell.


 Subroutine GETGRP returns: Found 24 space group operations
 (whereof  6 operations were pure point group operations)
 out of a pool of 48 trial point group operations.


The dynamic configuration has the point symmetry C_3v.
 The point group associated with its full space group is T_d .


 Subroutine INISYM returns: Found 24 space group operations
 (whereof  6 operations are pure point group operations),
 and found     1 'primitive' translations


----------------------------------------------------------------------------------------

                                     Primitive cell                                     

  volume of cell :     168.0433

  direct lattice vectors                    reciprocal lattice vectors
    -3.476325100  3.476325100  3.476325100    -0.000000000  0.143830046  0.143830046
     3.476325100 -3.476325100  3.476325100     0.143830046 -0.000000000  0.143830046
     3.476325100  3.476325100 -3.476325100     0.143830046  0.143830046 -0.000000000

  length of vectors
     6.021171697  6.021171697  6.021171697     0.203406402  0.203406402  0.203406402

  position of ions in fractional coordinates (direct lattice)
     0.091781563  0.333502338  0.517058243
     0.517058243  0.091781563  0.333502338
     0.275337468  0.850053567  0.850053567
     0.517058243  0.333502338  0.091781563
     0.333502338  0.091781563  0.517058243
     0.333502338  0.517058243  0.091781563
     0.908218437  0.666497662  0.666497662
     0.666497662  0.908218437  0.666497662
     0.850053567  0.275337468  0.850053567
     0.091781563  0.517058243  0.333502338
     0.850053567  0.850053567  0.275337468
     0.666497662  0.666497662  0.908218437
     0.091781563  0.334825575  0.334825575
     0.334825575  0.091781563  0.334825575
     0.091781563  0.848744713  0.848744713
     0.334825575  0.334825575  0.091781563
     0.848744713  0.091781563  0.848744713
     0.848744713  0.848744713  0.091781563
     0.341326693  0.341326693  0.341326693
     0.091781563  0.842229212  0.091781563
     0.091781563  0.091781563  0.842229212
     0.842229212  0.091781563  0.091781563

  ion indices of the primitive-cell ions
   primitive index   ion index
                 1           1
                 2           2
                 3           3
                 4           4
                 5           5
                 6           6
                 7           7
                 8           8
                 9           9
                10          10
                11          11
                12          12
                13          13
                14          14
                15          15
                16          16
                17          17
                18          18
                19          19
                20          20
                21          21
                22          22

----------------------------------------------------------------------------------------



 KPOINTS: auto                                    

Automatic generation of k-mesh.
 Grid dimensions read from file:
 generate k-points for:    5    5    5

 Generating k-lattice:

  Cartesian coordinates                     Fractional coordinates (reciprocal lattice)
    -0.000000000  0.028766009  0.028766009     0.200000000 -0.000000000  0.000000000
     0.028766009 -0.000000000  0.028766009    -0.000000000  0.200000000  0.000000000
     0.028766009  0.028766009 -0.000000000     0.000000000 -0.000000000  0.200000000

  Length of vectors
     0.040681280  0.040681280  0.040681280

  Shift w.r.t. Gamma in fractional coordinates (k-lattice)
     0.000000000  0.000000000  0.000000000

 
 Subroutine IBZKPT returns following result:
 ===========================================
 
 Found     10 irreducible k-points:
 
 Following reciprocal coordinates:
            Coordinates               Weight
  0.000000  0.000000  0.000000      1.000000
  0.200000  0.000000  0.000000     12.000000
  0.400000  0.000000  0.000000     12.000000
  0.200000  0.200000  0.000000     24.000000
  0.400000  0.200000  0.000000     24.000000
  0.200000  0.200000  0.200000      8.000000
 -0.200000  0.200000  0.200000      6.000000
 -0.400000  0.400000  0.200000     24.000000
 -0.400000 -0.400000  0.200000      8.000000
 -0.400000  0.400000  0.400000      6.000000
 
 Following cartesian coordinates:
            Coordinates               Weight
  0.000000  0.000000  0.000000      1.000000
  0.000000  0.028766  0.028766     12.000000
  0.000000  0.057532  0.057532     12.000000
  0.028766  0.028766  0.057532     24.000000
  0.028766  0.057532  0.086298     24.000000
  0.057532  0.057532  0.057532      8.000000
  0.057532  0.000000  0.000000      6.000000
  0.086298 -0.028766  0.000000     24.000000
 -0.028766 -0.028766 -0.115064      8.000000
  0.115064  0.000000  0.000000      6.000000
 


--------------------------------------------------------------------------------------------------------




 Dimension of arrays:
   k-points           NKPTS =     10   k-points in BZ     NKDIM =     10   number of bands    NBANDS=     40
   number of dos      NEDOS =    301   number of ions     NIONS =     22
   non local maximal  LDIM  =      4   non local SUM 2l+1 LMDIM =      8
   total plane-waves  NPLWV = 262144
   max r-space proj   IRMAX =      1   max aug-charges    IRDMAX=  11278
   dimension x,y,z NGX =    64 NGY =   64 NGZ =   64
   dimension x,y,z NGXF=   128 NGYF=  128 NGZF=  128
   support grid    NGXF=   128 NGYF=  128 NGZF=  128
   ions per type =              12   6   4
   NGX,Y,Z   is equivalent  to a cutoff of  17.67, 17.67, 17.67 a.u.
   NGXF,Y,Z  is equivalent  to a cutoff of  35.34, 35.34, 35.34 a.u.

 SYSTEM =  unknown system                          
 POSCAR =   H  C  N                                

 Startparameter for this run:
   NWRITE =      2    write-flag & timer
   PREC   = accura    normal or accurate (medium, high low for compatibility)
   ISTART =      0    job   : 0-new  1-cont  2-samecut
   ICHARG =      2    charge: 1-file 2-atom 10-const
   ISPIN  =      1    spin polarized calculation?
   LNONCOLLINEAR =      F non collinear calculations
   LSORBIT =      F    spin-orbit coupling
   INIWAV =      1    electr: 0-lowe 1-rand  2-diag
   LASPH  =      T    aspherical Exc in radial PAW
 Electronic Relaxation 1
   ENCUT  = 1000.0 eV  73.50 Ry    8.57 a.u.  15.53 15.53 15.53*2*pi/ulx,y,z
   ENINI  = 1000.0     initial cutoff
   ENAUG  = 1000.0 eV  augmentation charge cutoff
   NELM   =     60;   NELMIN=  2; NELMDL= -5     # of ELM steps 
   EDIFF  = 0.1E-06   stopping-criterion for ELM
   LREAL  =      F    real-space projection
   NLSPLINE    = F    spline interpolate recip. space projectors
   LCOMPAT=      F    compatible to vasp.4.4
   GGA_COMPAT  = T    GGA compatible to vasp.4.4-vasp.4.6
   LMAXPAW     = -100 max onsite density
   LMAXMIX     =    2 max onsite mixed and CHGCAR
   VOSKOWN=      0    Vosko Wilk Nusair interpolation
   ROPT   =    0.00000   0.00000   0.00000
 Ionic relaxation
   EDIFFG = 0.1E-05   stopping-criterion for IOM
   NSW    =      0    number of steps for IOM
   NBLOCK =      1;   KBLOCK =      1    inner block; outer block 
   IBRION =     -1    ionic relax: 0-MD 1-quasi-New 2-CG
   NFREE  =      0    steps in history (QN), initial steepest desc. (CG)
   ISIF   =      0    stress and relaxation
   IWAVPR =     10    prediction:  0-non 1-charg 2-wave 3-comb
   ISYM   =      2    0-nonsym 1-usesym 2-fastsym
   LCORR  =      T    Harris-Foulkes like correction to forces

   POTIM  = 0.5000    time-step for ionic-motion
   TEIN   =    0.0    initial temperature
   TEBEG  =    0.0;   TEEND  =   0.0 temperature during run
   SMASS  =  -3.00    Nose mass-parameter (am)
   estimated Nose-frequenzy (Omega)   =  0.10E-29 period in steps = 0.13E+47 mass=  -0.829E-27a.u.
   SCALEE = 1.0000    scale energy and forces
   NPACO  =    256;   APACO  = 10.0  distance and # of slots for P.C.
   PSTRESS=    0.0 pullay stress

  Mass of Ions in am
   POMASS =   1.00 12.01 14.00
  Ionic Valenz
   ZVAL   =   1.00  4.00  5.00
  Atomic Wigner-Seitz radii
   RWIGS  =  -1.00 -1.00 -1.00
  virtual crystal weights 
   VCA    =   1.00  1.00  1.00
   NELECT =      56.0000    total number of electrons
   NUPDOWN=      -1.0000    fix difference up-down

 DOS related values:
   EMIN   =  10.00;   EMAX   =-10.00  energy-range for DOS
   EFERMI =   0.00;   METHOD = LEGACY      
   ISMEAR =     0;   SIGMA  =   0.01  broadening in eV -4-tet -1-fermi 0-gaus

 Electronic relaxation 2 (details)
   IALGO  =     58    algorithm
   LDIAG  =      T    sub-space diagonalisation (order eigenvalues)
   LSUBROT=      F    optimize rotation matrix (better conditioning)
   TURBO    =      0    0=normal 1=particle mesh
   IRESTART =      0    0=no restart 2=restart with 2 vectors
   NREBOOT  =      0    no. of reboots
   NMIN     =      0    reboot dimension
   EREF     =   0.00    reference energy to select bands
   IMIX   =      4    mixing-type and parameters
     AMIX     =   0.40;   BMIX     =  1.00
     AMIX_MAG =   1.60;   BMIX_MAG =  1.00
     AMIN     =   0.10
     WC   =   100.;   INIMIX=   1;  MIXPRE=   1;  MAXMIX= -45

 Intra band minimization:
   WEIMIN = 0.0000     energy-eigenvalue tresh-hold
   EBREAK =  0.63E-09  absolut break condition
   DEPER  =   0.30     relativ break condition  

   TIME   =   0.40     timestep for ELM

  volume/ion in A,a.u.               =       7.64        51.55
  Fermi-wavevector in a.u.,A,eV,Ry     =   1.135003  2.144845 17.527467  1.288232
  Thomas-Fermi vector in A             =   2.271708

 Write flags
   LWAVE        =      F    write WAVECAR
   LDOWNSAMPLE  =      F    k-point downsampling of WAVECAR
   LCHARG       =      T    write CHGCAR
   LVTOT        =      F    write LOCPOT, total local potential
   LVHAR        =      F    write LOCPOT, Hartree potential only
   LELF         =      F    write electronic localiz. function (ELF)
   LORBIT       =      0    0 simple, 1 ext, 2 COOP (PROOUT), +10 PAW based schemes


 Dipole corrections
   LMONO  =      F    monopole corrections only (constant potential shift)
   LDIPOL =      F    correct potential (dipole corrections)
   IDIPOL =      0    1-x, 2-y, 3-z, 4-all directions 
   EPSILON=  1.0000000 bulk dielectric constant

 Exchange correlation treatment:
   GGA     =    OR    GGA type
   LEXCH   =    41    internal setting for exchange type
   LIBXC   =     F    Libxc                    
   VOSKOWN =     0    Vosko Wilk Nusair interpolation
   LHFCALC =     F    Hartree Fock is set to
   LHFONE  =     F    Hartree Fock one center treatment
   AEXX    =    0.0000 exact exchange contribution

 vdW DFT:
   LUSE_VDW   =     T    switch on vdW DFT
   IVDW_NL    =     1    kernel type
   LSPIN_VDW  =     F    use spin-polarized vdW DFT
   Zab_VDW    =-.8491    correlation parameter
   PARAM1     =0.1234
   PARAM2     =1.0000
   PARAM3     =0.0000
   -- rVV10 --
   BPARAM     = 6.3000
   CPARAM     = 0.0093

 Linear response parameters
   LEPSILON=     F    determine dielectric tensor
   LRPA    =     F    only Hartree local field effects (RPA)
   LNABLA  =     F    use nabla operator in PAW spheres
   LVEL    =     F    velocity operator in full k-point grid
   CSHIFT  =0.1000    complex shift for real part using Kramers Kronig
   OMEGAMAX=  -1.0    maximum frequency
   DEG_THRESHOLD= 0.2000000E-02 threshold for treating states as degnerate
   RTIME   =   -0.100 relaxation time in fs
  (WPLASMAI=    0.000 imaginary part of plasma frequency in eV, 0.658/RTIME)
   DFIELD  = 0.0000000 0.0000000 0.0000000 field for delta impulse in time

  Optional k-point grid parameters
   LKPOINTS_OPT  =     F    use optional k-point grid
   KPOINTS_OPT_MODE=     1    mode for optional k-point grid

 Orbital magnetization related:
   ORBITALMAG=     F  switch on orbital magnetization
   LCHIMAG   =     F  perturbation theory with respect to B field
   DQ        =  0.001000  dq finite difference perturbation B field
   LLRAUG    =     F  two centre corrections for induced B field
   LBONE     =     F  B-component reconstruction in AE one-centre
   LVGVCALC  =     T  calculate vGv susceptibility
   LVGVAPPL  =     F  apply vGv susceptibility instead of pGv for G=0

 Random number generation:
   RANDOM_GENERATOR = DEFAULT
   PCG_SEED         = not used


--------------------------------------------------------------------------------------------------------


 Static calculation
 charge density and potential will be updated during run
 non-spin polarized calculation
 Conjugate gradient for all bands (Freysoldt, et al. PRB 79, 241103 (2009))
 preconditioned conjugated gradient                                        
 perform sub-space diagonalisation
    before iterative eigenvector-optimisation
 modified Broyden-mixing scheme, WC =      100.0
 initial mixing is a Kerker type mixing with AMIX =  0.4000 and BMIX =      1.0000
 Hartree-type preconditioning will be used
 using additional bands           12
 reciprocal scheme for non local part
 use partial core corrections
 no Harris-corrections to forces 
 use gradient corrections 
 use of overlap-Matrix (Vanderbilt PP)
 Gauss-broadening in eV      SIGMA  =   0.01


--------------------------------------------------------------------------------------------------------


  energy-cutoff  :     1000.00
  volume of cell :      168.04
      direct lattice vectors                 reciprocal lattice vectors
    -3.476325100  3.476325100  3.476325100    -0.000000000  0.143830046  0.143830046
     3.476325100 -3.476325100  3.476325100     0.143830046 -0.000000000  0.143830046
     3.476325100  3.476325100 -3.476325100     0.143830046  0.143830046 -0.000000000

  length of vectors
     6.021171697  6.021171697  6.021171697     0.203406402  0.203406402  0.203406402



 k-points in units of 2pi/SCALE and weight: auto                                    
   0.00000000  0.00000000  0.00000000       0.008
   0.00000000  0.02876601  0.02876601       0.096
   0.00000000  0.05753202  0.05753202       0.096
   0.02876601  0.02876601  0.05753202       0.192
   0.02876601  0.05753202  0.08629803       0.192
   0.05753202  0.05753202  0.05753202       0.064
   0.05753202  0.00000000  0.00000000       0.048
   0.08629803 -0.02876601  0.00000000       0.192
  -0.02876601 -0.02876601 -0.11506404       0.064
   0.11506404  0.00000000  0.00000000       0.048

 k-points in reciprocal lattice and weights: auto                                    
   0.00000000  0.00000000  0.00000000       0.008
   0.20000000  0.00000000  0.00000000       0.096
   0.40000000  0.00000000  0.00000000       0.096
   0.20000000  0.20000000  0.00000000       0.192
   0.40000000  0.20000000  0.00000000       0.192
   0.20000000  0.20000000  0.20000000       0.064
  -0.20000000  0.20000000  0.20000000       0.048
  -0.40000000  0.40000000  0.20000000       0.192
  -0.40000000 -0.40000000  0.20000000       0.064
  -0.40000000  0.40000000  0.40000000       0.048

 position of ions in fractional coordinates (direct lattice) 
   0.09178156  0.33350234  0.51705824
   0.51705824  0.09178156  0.33350234
   0.27533747  0.85005357  0.85005357
   0.51705824  0.33350234  0.09178156
   0.33350234  0.09178156  0.51705824
   0.33350234  0.51705824  0.09178156
   0.90821844  0.66649766  0.66649766
   0.66649766  0.90821844  0.66649766
   0.85005357  0.27533747  0.85005357
   0.09178156  0.51705824  0.33350234
   0.85005357  0.85005357  0.27533747
   0.66649766  0.66649766  0.90821844
   0.09178156  0.33482557  0.33482557
   0.33482557  0.09178156  0.33482557
   0.09178156  0.84874471  0.84874471
   0.33482557  0.33482557  0.09178156
   0.84874471  0.09178156  0.84874471
   0.84874471  0.84874471  0.09178156
   0.34132669  0.34132669  0.34132669
   0.09178156  0.84222921  0.09178156
   0.09178156  0.09178156  0.84222921
   0.84222921  0.09178156  0.09178156

 position of ions in cartesian coordinates  (Angst):
   2.63776255  0.95716255 -0.31903745
  -0.31903745  2.63776255  0.95716255
   4.95296255  0.95716255  0.95716255
  -0.31903745  0.95716255  2.63776255
   0.95716255  2.63776255 -0.31903745
   0.95716255 -0.31903745  2.63776255
   1.47666255  3.15726255  3.15726255
   3.15726255  1.47666255  3.15726255
   0.95716255  4.95296255  0.95716255
   2.63776255 -0.31903745  0.95716255
   0.95716255  0.95716255  4.95296255
   3.15726255  3.15726255  1.47666255
   2.00886255  0.31906255  0.31906255
   0.31906255  2.00886255  0.31906255
   5.58196255  0.31906255  0.31906255
   0.31906255  0.31906255  2.00886255
   0.31906255  5.58196255  0.31906255
   0.31906255  0.31906255  5.58196255
   1.18656255  1.18656255  1.18656255
   2.92786255 -2.28973745  2.92786255
   2.92786255  2.92786255 -2.28973745
  -2.28973745  2.92786255  2.92786255



--------------------------------------------------------------------------------------------------------


 k-point   1 :   0.0000 0.0000 0.0000  plane waves:   12017
 k-point   2 :   0.2000 0.0000 0.0000  plane waves:   12071
 k-point   3 :   0.4000 0.0000 0.0000  plane waves:   12080
 k-point   4 :   0.2000 0.2000 0.0000  plane waves:   12053
 k-point   5 :   0.4000 0.2000 0.0000  plane waves:   12091
 k-point   6 :   0.2000 0.2000 0.2000  plane waves:   12085
 k-point   7 :  -0.2000 0.2000 0.2000  plane waves:   12102
 k-point   8 :  -0.4000 0.4000 0.2000  plane waves:   12062
 k-point   9 :  -0.4000-0.4000 0.2000  plane waves:   12073
 k-point  10 :  -0.4000 0.4000 0.4000  plane waves:   12014

 maximum and minimum number of plane-waves per node :       210      172

 maximum number of plane-waves:     12102
 maximum index in each direction: 
   IXMAX=   15   IYMAX=   15   IZMAX=   15
   IXMIN=  -15   IYMIN=  -15   IZMIN=  -15


 parallel 3D FFT for wavefunctions:
    minimum data exchange during FFTs selected (reduces bandwidth)
 parallel 3D FFT for charge:
    minimum data exchange during FFTs selected (reduces bandwidth)


 total amount of memory used by VASP MPI-rank0    33326. kBytes
=======================================================================

   base      :      30000. kBytes
   nonl-proj :        436. kBytes
   fftplans  :        702. kBytes
   grid      :       1225. kBytes
   one-center:          3. kBytes
   wavefun   :        960. kBytes

     INWAV:  cpu time      0.0000: real time      0.0000
 Broyden mixing: mesh for mixing (old mesh)
   NGX = 31   NGY = 31   NGZ = 31
  (NGX  =128   NGY  =128   NGZ  =128)
  gives a total of  29791 points

 initial charge density was supplied:
 charge density of overlapping atoms calculated
 number of electron      56.0000000 magnetization 
 keeping initial charge density in first step


--------------------------------------------------------------------------------------------------------


 Maximum index for augmentation-charges          217 (set IRDMAX)


--------------------------------------------------------------------------------------------------------


 First call to EWALD:  gamma=   0.321
 Maximum number of real-space cells 3x 3x 3
 Maximum number of reciprocal cells 3x 3x 3

    FEWALD:  cpu time      0.0026: real time      0.0026


--------------------------------------- Ionic step        1  -------------------------------------------




--------------------------------------- Iteration      1(   1)  ---------------------------------------


vdW kernel read from vdw_kernel.bindat
  0.0000  0.2424  0.5071  0.7962  1.1119  1.4567  1.8333  2.2446  2.6937  3.1842
  3.7199  4.3049  4.9438  5.6415  6.4036  7.2358  8.1446  9.1372 10.2212 11.4050
 12.6979 14.1099 15.6519 17.3360 19.1751 21.1837 23.3773 25.7729 28.3892 31.2465
 34.3669 37.7748 41.4965 45.5611 50.0000

    POTLOK:  cpu time      1.0605: real time      1.0616
    SETDIJ:  cpu time      0.0722: real time      0.0726
    TRIAL :  cpu time      0.4005: real time      0.4018
    CORREC:  cpu time      0.0030: real time      0.0033
    --------------------------------------------
      LOOP:  cpu time      1.5378: real time      1.5408

 eigenvalue-minimisations  :   800
 total energy-change (2. order) : 0.4123117E+03  (-0.4165255E+04)
 number of electron      56.0000000 magnetization 
 augmentation part       56.0000000 magnetization 

 Free energy of the ion-electron system (eV)
  ---------------------------------------------------
  alpha Z        PSCENC =        56.89320909
  Ewald energy   TEWEN  =      -822.09389158
  -Hartree energ DENC   =     -1122.58246755
  -exchange      EXHF   =         0.00000000
  -V(xc)+E(xc)   XCENC  =       136.87345172
  PAW double counting   =      1530.93219712    -1490.33795327
  entropy T*S    EENTRO =        -0.00067842
  eigenvalues    EBANDS =         9.45607801
  atomic energy  EATOM  =      2113.17180450
  ---------------------------------------------------
  free energy    TOTEN  =       412.31174962 eV

  energy without entropy =      412.31242803  energy(sigma->0) =      412.31208882


--------------------------------------------------------------------------------------------------------




--------------------------------------- Iteration      1(   2)  ---------------------------------------


    TRIAL :  cpu time      0.4313: real time      0.4315
    CORREC:  cpu time      0.0001: real time      0.0001
    --------------------------------------------
      LOOP:  cpu time      0.4468: real time      0.4598

 eigenvalue-minimisations  :  1088
 total energy-change (2. order) :-0.4783215E+03  (-0.4588702E+03)
 number of electron      56.0000000 magnetization 
 augmentation part       56.0000000 magnetization 

 Free energy of the ion-electron system (eV)
  ---------------------------------------------------
  alpha Z        PSCENC =        56.89320909
  Ewald energy   TEWEN  =      -822.09389158
  -Hartree energ DENC   =     -1122.58246755
  -exchange      EXHF   =         0.00000000
  -V(xc)+E(xc)   XCENC  =       136.87345172
  PAW double counting   =      1530.93219712    -1490.33795327
  entropy T*S    EENTRO =        -0.00000000
  eigenvalues    EBANDS =      -468.86613018
  atomic energy  EATOM  =      2113.17180450
  ---------------------------------------------------
  free energy    TOTEN  =       -66.00978016 eV

  energy without entropy =      -66.00978016  energy(sigma->0) =      -66.00978016


--------------------------------------------------------------------------------------------------------




--------------------------------------- Iteration      1(   3)  ---------------------------------------


    TRIAL :  cpu time      0.4086: real time      0.4086
    CORREC:  cpu time      0.0001: real time      0.0001
    --------------------------------------------
      LOOP:  cpu time      0.4212: real time      0.4377

 eigenvalue-minimisations  :   968
 total energy-change (2. order) :-0.5720807E+02  (-0.5683045E+02)
 number of electron      56.0000000 magnetization 
 augmentation part       56.0000000 magnetization 

 Free energy of the ion-electron system (eV)
  ---------------------------------------------------
  alpha Z        PSCENC =        56.89320909
  Ewald energy   TEWEN  =      -822.09389158
  -Hartree energ DENC   =     -1122.58246755
  -exchange      EXHF   =         0.00000000
  -V(xc)+E(xc)   XCENC  =       136.87345172
  PAW double counting   =      1530.93219712    -1490.33795327
  entropy T*S    EENTRO =        -0.00000000
  eigenvalues    EBANDS =      -526.07419816
  atomic energy  EATOM  =      2113.17180450
  ---------------------------------------------------
  free energy    TOTEN  =      -123.21784814 eV

  energy without entropy =     -123.21784814  energy(sigma->0) =     -123.21784814


--------------------------------------------------------------------------------------------------------




--------------------------------------- Iteration      1(   4)  ---------------------------------------


    TRIAL :  cpu time      0.4817: real time      0.4820
    CORREC:  cpu time      0.0001: real time      0.0001
    --------------------------------------------
      LOOP:  cpu time      0.4961: real time      0.5122

 eigenvalue-minimisations  :  1160
 total energy-change (2. order) :-0.1900002E+01  (-0.1895343E+01)
 number of electron      56.0000000 magnetization 
 augmentation part       56.0000000 magnetization 

 Free energy of the ion-electron system (eV)
  ---------------------------------------------------
  alpha Z        PSCENC =        56.89320909
  Ewald energy   TEWEN  =      -822.09389158
  -Hartree energ DENC   =     -1122.58246755
  -exchange      EXHF   =         0.00000000
  -V(xc)+E(xc)   XCENC  =       136.87345172
  PAW double counting   =      1530.93219712    -1490.33795327
  entropy T*S    EENTRO =        -0.00000000
  eigenvalues    EBANDS =      -527.97419974
  atomic energy  EATOM  =      2113.17180450
  ---------------------------------------------------
  free energy    TOTEN  =      -125.11784972 eV

  energy without entropy =     -125.11784972  energy(sigma->0) =     -125.11784972


--------------------------------------------------------------------------------------------------------




--------------------------------------- Iteration      1(   5)  ---------------------------------------


    TRIAL :  cpu time      0.4662: real time      0.4662
    CORREC:  cpu time      0.0001: real time      0.0001
    CHARGE:  cpu time      0.0783: real time      0.0786
    --------------------------------------------
      LOOP:  cpu time      0.5589: real time      0.5741

 eigenvalue-minimisations  :  1128
 total energy-change (2. order) :-0.4871307E-01  (-0.4868641E-01)
 number of electron      56.0000000 magnetization 
 augmentation part       -0.0520803 magnetization 

 Free energy of the ion-electron system (eV)
  ---------------------------------------------------
  alpha Z        PSCENC =        56.89320909
  Ewald energy   TEWEN  =      -822.09389158
  -Hartree energ DENC   =     -1122.58246755
  -exchange      EXHF   =         0.00000000
  -V(xc)+E(xc)   XCENC  =       136.87345172
  PAW double counting   =      1530.93219712    -1490.33795327
  entropy T*S    EENTRO =        -0.00000000
  eigenvalues    EBANDS =      -528.02291281
  atomic energy  EATOM  =      2113.17180450
  ---------------------------------------------------
  free energy    TOTEN  =      -125.16656279 eV

  energy without entropy =     -125.16656279  energy(sigma->0) =     -125.16656279


--------------------------------------------------------------------------------------------------------




--------------------------------------- Iteration      1(   6)  ---------------------------------------


    POTLOK:  cpu time      0.4654: real time      0.4656
    SETDIJ:  cpu time      0.0665: real time      0.0665
    TRIAL :  cpu time      0.2501: real time      0.2507
    CORREC:  cpu time      0.7003: real time      0.7009
    CHARGE:  cpu time      0.0639: real time      0.0639
    --------------------------------------------
      LOOP:  cpu time      1.5622: real time      1.5799

 eigenvalue-minimisations  :     0
 total energy-change (2. order) : 0.1598845E+02  (-0.6085810E+01)
 number of electron      56.0000000 magnetization 
 augmentation part       -0.0751766 magnetization 

 Free energy of the ion-electron system (eV)
  ---------------------------------------------------
  alpha Z        PSCENC =        56.89320909
  Ewald energy   TEWEN  =      -822.09389158
  -Hartree energ DENC   =     -1406.95693379
  -exchange      EXHF   =         0.00000000
  -V(xc)+E(xc)   XCENC  =       153.39934489
  PAW double counting   =     13678.18202143   -13639.54427900
  entropy T*S    EENTRO =        -0.00000000
  eigenvalues    EBANDS =      -242.22938339
  atomic energy  EATOM  =      2113.17180450
  ---------------------------------------------------
  free energy    TOTEN  =      -109.17810785 eV

  energy without entropy =     -109.17810785  energy(sigma->0) =     -109.17810785


--------------------------------------------------------------------------------------------------------




--------------------------------------- Iteration      1(   7)  ---------------------------------------


    POTLOK:  cpu time      0.4202: real time      0.4202
    SETDIJ:  cpu time      0.0665: real time      0.0666
    TRIAL :  cpu time      0.2270: real time      0.2270
    CORREC:  cpu time      0.6894: real time      0.6894
    CHARGE:  cpu time      0.0630: real time      0.0632
    --------------------------------------------
      LOOP:  cpu time      1.4957: real time      1.4963

 eigenvalue-minimisations  :     0
 total energy-change (2. order) :-0.6079885E+01  (-0.8599903E+00)
 number of electron      56.0000000 magnetization 
 augmentation part       -0.0902649 magnetization 

 Free energy of the ion-electron system (eV)
  ---------------------------------------------------
  alpha Z        PSCENC =        56.89320909
  Ewald energy   TEWEN  =      -822.09389158
  -Hartree energ DENC   =     -1276.72502255
  -exchange      EXHF   =         0.00000000
  -V(xc)+E(xc)   XCENC  =       147.60454060
  PAW double counting   =     17861.58758731   -17822.08513053
  entropy T*S    EENTRO =        -0.00000000
  eigenvalues    EBANDS =      -373.61108940
  atomic energy  EATOM  =      2113.17180450
  ---------------------------------------------------
  free energy    TOTEN  =      -115.25799258 eV

  energy without entropy =     -115.25799258  energy(sigma->0) =     -115.25799258


--------------------------------------------------------------------------------------------------------




--------------------------------------- Iteration      1(   8)  ---------------------------------------


    POTLOK:  cpu time      0.4195: real time      0.4195
    SETDIJ:  cpu time      0.0665: real time      0.0665
    TRIAL :  cpu time      0.2261: real time      0.2262
    CORREC:  cpu time      0.6870: real time      0.6872
    CHARGE:  cpu time      0.0643: real time      0.0643
    --------------------------------------------
      LOOP:  cpu time      1.4763: real time      1.4937

 eigenvalue-minimisations  :     0
 total energy-change (2. order) :-0.8558160E+00  (-0.2464159E+00)
 number of electron      56.0000000 magnetization 
 augmentation part       -0.0851546 magnetization 

 Free energy of the ion-electron system (eV)
  ---------------------------------------------------
  alpha Z        PSCENC =        56.89320909
  Ewald energy   TEWEN  =      -822.09389158
  -Hartree energ DENC   =     -1274.90867157
  -exchange      EXHF   =         0.00000000
  -V(xc)+E(xc)   XCENC  =       147.22492224
  PAW double counting   =     18963.67044215   -18924.01741836
  entropy T*S    EENTRO =        -0.00000000
  eigenvalues    EBANDS =      -376.05420506
  atomic energy  EATOM  =      2113.17180450
  ---------------------------------------------------
  free energy    TOTEN  =      -116.11380859 eV

  energy without entropy =     -116.11380859  energy(sigma->0) =     -116.11380859


--------------------------------------------------------------------------------------------------------




--------------------------------------- Iteration      1(   9)  ---------------------------------------


    POTLOK:  cpu time      0.4293: real time      0.4293
    SETDIJ:  cpu time      0.0664: real time      0.0665
    TRIAL :  cpu time      0.2254: real time      0.2255
    CORREC:  cpu time      0.6880: real time      0.6880
    CHARGE:  cpu time      0.0667: real time      0.0669
    --------------------------------------------
      LOOP:  cpu time      1.4869: real time      1.5055

 eigenvalue-minimisations  :     0
 total energy-change (2. order) :-0.2425808E+00  (-0.5632668E-01)
 number of electron      56.0000000 magnetization 
 augmentation part       -0.0843656 magnetization 

 Free energy of the ion-electron system (eV)
  ---------------------------------------------------
  alpha Z        PSCENC =        56.89320909
  Ewald energy   TEWEN  =      -822.09389158
  -Hartree energ DENC   =     -1265.99038423
  -exchange      EXHF   =         0.00000000
  -V(xc)+E(xc)   XCENC  =       146.93506598
  PAW double counting   =     18574.61365603   -18534.93249706
  entropy T*S    EENTRO =        -0.00000000
  eigenvalues    EBANDS =      -384.95335211
  atomic energy  EATOM  =      2113.17180450
  ---------------------------------------------------
  free energy    TOTEN  =      -116.35638937 eV

  energy without entropy =     -116.35638937  energy(sigma->0) =     -116.35638937


--------------------------------------------------------------------------------------------------------




--------------------------------------- Iteration      1(  10)  ---------------------------------------


    POTLOK:  cpu time      0.4188: real time      0.4188
    SETDIJ:  cpu time      0.0665: real time      0.0665
    TRIAL :  cpu time      0.2257: real time      0.2257
    CORREC:  cpu time      0.7143: real time      0.7146
    CHARGE:  cpu time      0.0634: real time      0.0634
    --------------------------------------------
      LOOP:  cpu time      1.5016: real time      1.5187

 eigenvalue-minimisations  :     0
 total energy-change (2. order) :-0.5619828E-01  (-0.1222828E-01)
 number of electron      56.0000000 magnetization 
 augmentation part       -0.0844506 magnetization 

 Free energy of the ion-electron system (eV)
  ---------------------------------------------------
  alpha Z        PSCENC =        56.89320909
  Ewald energy   TEWEN  =      -822.09389158
  -Hartree energ DENC   =     -1265.01840651
  -exchange      EXHF   =         0.00000000
  -V(xc)+E(xc)   XCENC  =       146.91557423
  PAW double counting   =     18016.79014864   -17977.13810173
  entropy T*S    EENTRO =        -0.00000000
  eigenvalues    EBANDS =      -385.93292429
  atomic energy  EATOM  =      2113.17180450
  ---------------------------------------------------
  free energy    TOTEN  =      -116.41258765 eV

  energy without entropy =     -116.41258765  energy(sigma->0) =     -116.41258765


--------------------------------------------------------------------------------------------------------




--------------------------------------- Iteration      1(  11)  ---------------------------------------


    POTLOK:  cpu time      0.4182: real time      0.4183
    SETDIJ:  cpu time      0.0664: real time      0.0666
    TRIAL :  cpu time      0.2255: real time      0.2255
    CORREC:  cpu time      0.6877: real time      0.6878
    CHARGE:  cpu time      0.0637: real time      0.0639
    --------------------------------------------
      LOOP:  cpu time      1.4730: real time      1.4913

 eigenvalue-minimisations  :     0
 total energy-change (2. order) :-0.1221931E-01  (-0.2729047E-02)
 number of electron      56.0000000 magnetization 
 augmentation part       -0.0847404 magnetization 

 Free energy of the ion-electron system (eV)
  ---------------------------------------------------
  alpha Z        PSCENC =        56.89320909
  Ewald energy   TEWEN  =      -822.09389158
  -Hartree energ DENC   =     -1265.15618484
  -exchange      EXHF   =         0.00000000
  -V(xc)+E(xc)   XCENC  =       146.88003797
  PAW double counting   =     17889.83172891   -17850.19105514
  entropy T*S    EENTRO =        -0.00000000
  eigenvalues    EBANDS =      -385.76045588
  atomic energy  EATOM  =      2113.17180450
  ---------------------------------------------------
  free energy    TOTEN  =      -116.42480696 eV

  energy without entropy =     -116.42480696  energy(sigma->0) =     -116.42480696


--------------------------------------------------------------------------------------------------------




--------------------------------------- Iteration      1(  12)  ---------------------------------------


    POTLOK:  cpu time      0.4190: real time      0.4191
    SETDIJ:  cpu time      0.0667: real time      0.0667
    TRIAL :  cpu time      0.2261: real time      0.2261
    CORREC:  cpu time      0.6881: real time      0.6884
    CHARGE:  cpu time      0.0634: real time      0.0634
    --------------------------------------------
      LOOP:  cpu time      1.4916: real time      1.4922

 eigenvalue-minimisations  :     0
 total energy-change (2. order) :-0.2727400E-02  (-0.6868440E-03)
 number of electron      56.0000000 magnetization 
 augmentation part       -0.0848457 magnetization 

 Free energy of the ion-electron system (eV)
  ---------------------------------------------------
  alpha Z        PSCENC =        56.89320909
  Ewald energy   TEWEN  =      -822.09389158
  -Hartree energ DENC   =     -1264.80928712
  -exchange      EXHF   =         0.00000000
  -V(xc)+E(xc)   XCENC  =       146.85137873
  PAW double counting   =     17930.82898905   -17891.18796912
  entropy T*S    EENTRO =        -0.00000000
  eigenvalues    EBANDS =      -386.08176790
  atomic energy  EATOM  =      2113.17180450
  ---------------------------------------------------
  free energy    TOTEN  =      -116.42753436 eV

  energy without entropy =     -116.42753436  energy(sigma->0) =     -116.42753436


--------------------------------------------------------------------------------------------------------




--------------------------------------- Iteration      1(  13)  ---------------------------------------


    POTLOK:  cpu time      0.4183: real time      0.4183
    SETDIJ:  cpu time      0.0664: real time      0.0666
    TRIAL :  cpu time      0.2392: real time      0.2392
    CORREC:  cpu time      0.6991: real time      0.6992
    CHARGE:  cpu time      0.0636: real time      0.0637
    --------------------------------------------
      LOOP:  cpu time      1.4985: real time      1.5165

 eigenvalue-minimisations  :     0
 total energy-change (2. order) :-0.6854203E-03  (-0.1795313E-03)
 number of electron      56.0000000 magnetization 
 augmentation part       -0.0848399 magnetization 

 Free energy of the ion-electron system (eV)
  ---------------------------------------------------
  alpha Z        PSCENC =        56.89320909
  Ewald energy   TEWEN  =      -822.09389158
  -Hartree energ DENC   =     -1265.21302175
  -exchange      EXHF   =         0.00000000
  -V(xc)+E(xc)   XCENC  =       146.86588919
  PAW double counting   =     17949.22207626   -17909.58314289
  entropy T*S    EENTRO =        -0.00000000
  eigenvalues    EBANDS =      -385.69114260
  atomic energy  EATOM  =      2113.17180450
  ---------------------------------------------------
  free energy    TOTEN  =      -116.42821978 eV

  energy without entropy =     -116.42821978  energy(sigma->0) =     -116.42821978


--------------------------------------------------------------------------------------------------------




--------------------------------------- Iteration      1(  14)  ---------------------------------------


    POTLOK:  cpu time      0.4211: real time      0.4211
    SETDIJ:  cpu time      0.0666: real time      0.0666
    TRIAL :  cpu time      0.2253: real time      0.2254
    CORREC:  cpu time      0.6873: real time      0.6875
    CHARGE:  cpu time      0.0637: real time      0.0638
    --------------------------------------------
      LOOP:  cpu time      1.4799: real time      1.4940

 eigenvalue-minimisations  :     0
 total energy-change (2. order) :-0.1801076E-03  (-0.4587346E-04)
 number of electron      56.0000000 magnetization 
 augmentation part       -0.0847733 magnetization 

 Free energy of the ion-electron system (eV)
  ---------------------------------------------------
  alpha Z        PSCENC =        56.89320909
  Ewald energy   TEWEN  =      -822.09389158
  -Hartree energ DENC   =     -1265.12172250
  -exchange      EXHF   =         0.00000000
  -V(xc)+E(xc)   XCENC  =       146.86210635
  PAW double counting   =     17957.23882371   -17917.59907091
  entropy T*S    EENTRO =        -0.00000000
  eigenvalues    EBANDS =      -385.77965855
  atomic energy  EATOM  =      2113.17180450
  ---------------------------------------------------
  free energy    TOTEN  =      -116.42839989 eV

  energy without entropy =     -116.42839989  energy(sigma->0) =     -116.42839989


--------------------------------------------------------------------------------------------------------




--------------------------------------- Iteration      1(  15)  ---------------------------------------


    POTLOK:  cpu time      0.4187: real time      0.4187
    SETDIJ:  cpu time      0.0664: real time      0.0666
    TRIAL :  cpu time      0.2344: real time      0.2344
    CORREC:  cpu time      0.7549: real time      0.7551
    CHARGE:  cpu time      0.0637: real time      0.0637
    --------------------------------------------
      LOOP:  cpu time      1.5664: real time      1.5672

 eigenvalue-minimisations  :     0
 total energy-change (2. order) :-0.4608200E-04  (-0.1433254E-04)
 number of electron      56.0000000 magnetization 
 augmentation part       -0.0847697 magnetization 

 Free energy of the ion-electron system (eV)
  ---------------------------------------------------
  alpha Z        PSCENC =        56.89320909
  Ewald energy   TEWEN  =      -822.09389158
  -Hartree energ DENC   =     -1265.21492305
  -exchange      EXHF   =         0.00000000
  -V(xc)+E(xc)   XCENC  =       146.86527293
  PAW double counting   =     17956.59582654   -17916.95618076
  entropy T*S    EENTRO =        -0.00000000
  eigenvalues    EBANDS =      -385.68956363
  atomic energy  EATOM  =      2113.17180450
  ---------------------------------------------------
  free energy    TOTEN  =      -116.42844597 eV

  energy without entropy =     -116.42844597  energy(sigma->0) =     -116.42844597


--------------------------------------------------------------------------------------------------------




--------------------------------------- Iteration      1(  16)  ---------------------------------------


    POTLOK:  cpu time      0.4190: real time      0.4191
    SETDIJ:  cpu time      0.0665: real time      0.0665
    TRIAL :  cpu time      0.2250: real time      0.2250
    CORREC:  cpu time      0.6876: real time      0.6879
    CHARGE:  cpu time      0.0638: real time      0.0638
    --------------------------------------------
      LOOP:  cpu time      1.4759: real time      1.4915

 eigenvalue-minimisations  :     0
 total energy-change (2. order) :-0.1446753E-04  (-0.5476708E-05)
 number of electron      56.0000000 magnetization 
 augmentation part       -0.0847800 magnetization 

 Free energy of the ion-electron system (eV)
  ---------------------------------------------------
  alpha Z        PSCENC =        56.89320909
  Ewald energy   TEWEN  =      -822.09389158
  -Hartree energ DENC   =     -1265.17828823
  -exchange      EXHF   =         0.00000000
  -V(xc)+E(xc)   XCENC  =       146.86443747
  PAW double counting   =     17957.84991920   -17918.20999270
  entropy T*S    EENTRO =        -0.00000000
  eigenvalues    EBANDS =      -385.72565819
  atomic energy  EATOM  =      2113.17180450
  ---------------------------------------------------
  free energy    TOTEN  =      -116.42846044 eV

  energy without entropy =     -116.42846044  energy(sigma->0) =     -116.42846044


--------------------------------------------------------------------------------------------------------




--------------------------------------- Iteration      1(  17)  ---------------------------------------


    POTLOK:  cpu time      0.4197: real time      0.4199
    SETDIJ:  cpu time      0.0665: real time      0.0665
    TRIAL :  cpu time      0.2257: real time      0.2258
    CORREC:  cpu time      0.6882: real time      0.6884
    CHARGE:  cpu time      0.0646: real time      0.0646
    --------------------------------------------
      LOOP:  cpu time      1.4762: real time      1.4937

 eigenvalue-minimisations  :     0
 total energy-change (2. order) :-0.5322781E-05  (-0.1574038E-05)
 number of electron      56.0000000 magnetization 
 augmentation part       -0.0847948 magnetization 

 Free energy of the ion-electron system (eV)
  ---------------------------------------------------
  alpha Z        PSCENC =        56.89320909
  Ewald energy   TEWEN  =      -822.09389158
  -Hartree energ DENC   =     -1265.20572069
  -exchange      EXHF   =         0.00000000
  -V(xc)+E(xc)   XCENC  =       146.86564599
  PAW double counting   =     17958.62958778   -17918.98971677
  entropy T*S    EENTRO =        -0.00000000
  eigenvalues    EBANDS =      -385.69938408
  atomic energy  EATOM  =      2113.17180450
  ---------------------------------------------------
  free energy    TOTEN  =      -116.42846576 eV

  energy without entropy =     -116.42846576  energy(sigma->0) =     -116.42846576


--------------------------------------------------------------------------------------------------------




--------------------------------------- Iteration      1(  18)  ---------------------------------------


    POTLOK:  cpu time      0.4186: real time      0.4186
    SETDIJ:  cpu time      0.0665: real time      0.0665
    TRIAL :  cpu time      0.2245: real time      0.2245
    CORREC:  cpu time      0.6887: real time      0.6889
    CHARGE:  cpu time      0.0635: real time      0.0635
    --------------------------------------------
      LOOP:  cpu time      1.4906: real time      1.4911

 eigenvalue-minimisations  :     0
 total energy-change (2. order) :-0.1575179E-05  (-0.5212408E-06)
 number of electron      56.0000000 magnetization 
 augmentation part       -0.0847920 magnetization 

 Free energy of the ion-electron system (eV)
  ---------------------------------------------------
  alpha Z        PSCENC =        56.89320909
  Ewald energy   TEWEN  =      -822.09389158
  -Hartree energ DENC   =     -1265.17926768
  -exchange      EXHF   =         0.00000000
  -V(xc)+E(xc)   XCENC  =       146.86465126
  PAW double counting   =     17958.41689360   -17918.77691104
  entropy T*S    EENTRO =        -0.00000000
  eigenvalues    EBANDS =      -385.72495548
  atomic energy  EATOM  =      2113.17180450
  ---------------------------------------------------
  free energy    TOTEN  =      -116.42846734 eV

  energy without entropy =     -116.42846734  energy(sigma->0) =     -116.42846734


--------------------------------------------------------------------------------------------------------




--------------------------------------- Iteration      1(  19)  ---------------------------------------


    POTLOK:  cpu time      0.4190: real time      0.4192
    SETDIJ:  cpu time      0.0665: real time      0.0665
    TRIAL :  cpu time      0.2244: real time      0.2244
    CORREC:  cpu time      0.6860: real time      0.6860
    CHARGE:  cpu time      0.0636: real time      0.0638
    --------------------------------------------
      LOOP:  cpu time      1.4729: real time      1.4888

 eigenvalue-minimisations  :     0
 total energy-change (2. order) :-0.4977228E-06  (-0.1134024E-06)
 number of electron      56.0000000 magnetization 
 augmentation part       -0.0847942 magnetization 

 Free energy of the ion-electron system (eV)
  ---------------------------------------------------
  alpha Z        PSCENC =        56.89320909
  Ewald energy   TEWEN  =      -822.09389158
  -Hartree energ DENC   =     -1265.19266443
  -exchange      EXHF   =         0.00000000
  -V(xc)+E(xc)   XCENC  =       146.86514223
  PAW double counting   =     17957.18618375   -17917.54630940
  entropy T*S    EENTRO =        -0.00000000
  eigenvalues    EBANDS =      -385.71194199
  atomic energy  EATOM  =      2113.17180450
  ---------------------------------------------------
  free energy    TOTEN  =      -116.42846783 eV

  energy without entropy =     -116.42846783  energy(sigma->0) =     -116.42846783


--------------------------------------------------------------------------------------------------------




--------------------------------------- Iteration      1(  20)  ---------------------------------------


    POTLOK:  cpu time      0.4191: real time      0.4191
    SETDIJ:  cpu time      0.0665: real time      0.0665
    TRIAL :  cpu time      0.2261: real time      0.2261
    CORREC:  cpu time      0.6877: real time      0.6880
    CHARGE:  cpu time      0.0636: real time      0.0636
    --------------------------------------------
      LOOP:  cpu time      1.4743: real time      1.4911

 eigenvalue-minimisations  :     0
 total energy-change (2. order) :-0.1147109E-06  (-0.4092779E-07)
 number of electron      56.0000000 magnetization 
 augmentation part       -0.0847943 magnetization 

 Free energy of the ion-electron system (eV)
  ---------------------------------------------------
  alpha Z        PSCENC =        56.89320909
  Ewald energy   TEWEN  =      -822.09389158
  -Hartree energ DENC   =     -1265.18537983
  -exchange      EXHF   =         0.00000000
  -V(xc)+E(xc)   XCENC  =       146.86487627
  PAW double counting   =     17957.03948108   -17917.39957861
  entropy T*S    EENTRO =        -0.00000000
  eigenvalues    EBANDS =      -385.71898887
  atomic energy  EATOM  =      2113.17180450
  ---------------------------------------------------
  free energy    TOTEN  =      -116.42846795 eV

  energy without entropy =     -116.42846795  energy(sigma->0) =     -116.42846795


--------------------------------------------------------------------------------------------------------




--------------------------------------- Iteration      1(  21)  ---------------------------------------


    POTLOK:  cpu time      0.4197: real time      0.4199
    SETDIJ:  cpu time      0.0665: real time      0.0665
    TRIAL :  cpu time      0.2262: real time      0.2262
    CORREC:  cpu time      0.6875: real time      0.6875
    EDDIAG:  cpu time      0.1502: real time      0.1510
    CHARGE:  cpu time      0.0636: real time      0.0636
    --------------------------------------------
      LOOP:  cpu time      1.6271: real time      1.6440

 eigenvalue-minimisations  :     0
 total energy-change (2. order) :-0.4081630E-07  (-0.1225542E-07)
 number of electron      56.0000000 magnetization 
 augmentation part       -0.0847931 magnetization 

 Free energy of the ion-electron system (eV)
  ---------------------------------------------------
  alpha Z        PSCENC =        56.89320909
  Ewald energy   TEWEN  =      -822.09389158
  -Hartree energ DENC   =     -1265.18582380
  -exchange      EXHF   =         0.00000000
  -V(xc)+E(xc)   XCENC  =       146.86487799
  PAW double counting   =     17957.11219280   -17917.47228707
  entropy T*S    EENTRO =        -0.00000000
  eigenvalues    EBANDS =      -385.71854992
  atomic energy  EATOM  =      2113.17180450
  ---------------------------------------------------
  free energy    TOTEN  =      -116.42846799 eV

  energy without entropy =     -116.42846799  energy(sigma->0) =     -116.42846799


--------------------------------------------------------------------------------------------------------


  average scaling for gradient   0.9277


 average (electrostatic) potential at core
  the test charge radii are     0.4325  0.5770  0.5902
  (the norm of the test charge is              1.0000)
       1 -39.9513       2 -39.9513       3 -39.9496       4 -39.9513       5 -39.9513
       6 -39.9513       7 -39.9495       8 -39.9495       9 -39.9496      10 -39.9513
      11 -39.9496      12 -39.9495      13 -81.8587      14 -81.8587      15 -81.8576
      16 -81.8587      17 -81.8576      18 -81.8576      19 -97.8837      20 -97.8843
      21 -97.8843      22 -97.8843



 E-fermi :   1.0662     XC(G=0):  -8.6753     alpha+bet : -7.9003

 Fermi energy:         1.0661917699

 k-point     1 :       0.0000    0.0000    0.0000
  band No.  band energies     occupation 
      1     -19.4870      2.00000
      2     -16.3709      2.00000
      3     -16.3709      2.00000
      4     -16.3708      2.00000
      5     -11.5601      2.00000
      6     -11.5601      2.00000
      7     -10.1999      2.00000
      8     -10.1999      2.00000
      9     -10.1997      2.00000
     10      -8.5745      2.00000
     11      -5.9925      2.00000
     12      -5.9922      2.00000
     13      -5.9922      2.00000
     14      -5.9180      2.00000
     15      -5.9180      2.00000
     16      -5.9177      2.00000
     17      -3.5804      2.00000
     18      -3.5804      2.00000
     19      -3.0369      2.00000
     20      -3.0369      2.00000
     21      -3.0362      2.00000
     22      -2.8524      2.00000
     23      -2.8514      2.00000
     24      -2.8514      2.00000
     25      -2.6090      2.00000
     26       0.3381      2.00000
     27       0.3381      2.00000
     28       0.3389      2.00000
     29       5.5591      0.00000
     30       7.2560      0.00000
     31       7.2560      0.00000
     32       7.2562      0.00000
     33       8.3131      0.00000
     34       8.8078      0.00000
     35       8.8087      0.00000
     36       8.8149      0.00000
     37       9.8773      0.00000
     38       9.8921      0.00000
     39      10.1943      0.00000
     40      10.4337      0.00000

 k-point     2 :       0.2000    0.0000    0.0000
  band No.  band energies     occupation 
      1     -19.4752      2.00000
      2     -16.3990      2.00000
      3     -16.3795      2.00000
      4     -16.3741      2.00000
      5     -11.5707      2.00000
      6     -11.5254      2.00000
      7     -10.2343      2.00000
      8     -10.2188      2.00000
      9     -10.1788      2.00000
     10      -8.3632      2.00000
     11      -6.1407      2.00000
     12      -6.0443      2.00000
     13      -5.9862      2.00000
     14      -5.9465      2.00000
     15      -5.8745      2.00000
     16      -5.8204      2.00000
     17      -3.5403      2.00000
     18      -3.3857      2.00000
     19      -3.3728      2.00000
     20      -3.2039      2.00000
     21      -3.0543      2.00000
     22      -2.8876      2.00000
     23      -2.8748      2.00000
     24      -2.8561      2.00000
     25      -2.6227      2.00000
     26       0.3226      2.00000
     27       0.4470      2.00000
     28       0.5623      2.00000
     29       5.8479      0.00000
     30       6.7306      0.00000
     31       6.8383      0.00000
     32       7.3989      0.00000
     33       8.1605      0.00000
     34       8.8202      0.00000
     35       8.9508      0.00000
     36       9.3665      0.00000
     37       9.3971      0.00000
     38       9.5519      0.00000
     39      10.1217      0.00000
     40      10.3174      0.00000

 k-point     3 :       0.4000    0.0000    0.0000
  band No.  band energies     occupation 
      1     -19.4558      2.00000
      2     -16.4447      2.00000
      3     -16.3933      2.00000
      4     -16.3793      2.00000
      5     -11.5884      2.00000
      6     -11.4650      2.00000
      7     -10.2930      2.00000
      8     -10.2380      2.00000
      9     -10.1459      2.00000
     10      -7.9687      2.00000
     11      -6.3747      2.00000
     12      -6.2328      2.00000
     13      -5.9514      2.00000
     14      -5.8558      2.00000
     15      -5.7785      2.00000
     16      -5.7235      2.00000
     17      -3.9294      2.00000
     18      -3.5348      2.00000
     19      -3.4061      2.00000
     20      -3.2127      2.00000
     21      -2.9832      2.00000
     22      -2.9538      2.00000
     23      -2.9069      2.00000
     24      -2.8574      2.00000
     25      -2.6158      2.00000
     26       0.2957      2.00000
     27       0.5742      2.00000
     28       0.9252      2.00000
     29       5.9345      0.00000
     30       6.3968      0.00000
     31       6.7845      0.00000
     32       7.4083      0.00000
     33       8.0649      0.00000
     34       8.5411      0.00000
     35       8.6738      0.00000
     36       8.9701      0.00000
     37       9.5902      0.00000
     38       9.8367      0.00000
     39       9.9391      0.00000
     40      10.1672      0.00000

 k-point     4 :       0.2000    0.2000    0.0000
  band No.  band energies     occupation 
      1     -19.4596      2.00000
      2     -16.4288      2.00000
      3     -16.3941      2.00000
      4     -16.3821      2.00000
      5     -11.5698      2.00000
      6     -11.4942      2.00000
      7     -10.2772      2.00000
      8     -10.1951      2.00000
      9     -10.1930      2.00000
     10      -8.0577      2.00000
     11      -6.3073      2.00000
     12      -6.1376      2.00000
     13      -6.0440      2.00000
     14      -5.8756      2.00000
     15      -5.7812      2.00000
     16      -5.7589      2.00000
     17      -3.7897      2.00000
     18      -3.5146      2.00000
     19      -3.3060      2.00000
     20      -3.2288      2.00000
     21      -3.0891      2.00000
     22      -2.9205      2.00000
     23      -2.9083      2.00000
     24      -2.8694      2.00000
     25      -2.6672      2.00000
     26       0.3660      2.00000
     27       0.5725      2.00000
     28       0.8001      2.00000
     29       6.1081      0.00000
     30       6.3806      0.00000
     31       6.4928      0.00000
     32       7.6835      0.00000
     33       7.9361      0.00000
     34       8.4410      0.00000
     35       8.9067      0.00000
     36       9.4209      0.00000
     37       9.4890      0.00000
     38       9.5272      0.00000
     39      10.0096      0.00000
     40      10.2571      0.00000

 k-point     5 :       0.4000    0.2000    0.0000
  band No.  band energies     occupation 
      1     -19.4498      2.00000
      2     -16.4428      2.00000
      3     -16.4090      2.00000
      4     -16.3857      2.00000
      5     -11.5610      2.00000
      6     -11.4841      2.00000
      7     -10.2789      2.00000
      8     -10.2257      2.00000
      9     -10.1758      2.00000
     10      -7.8435      2.00000
     11      -6.3473      2.00000
     12      -6.2612      2.00000
     13      -6.0824      2.00000
     14      -5.8094      2.00000
     15      -5.7604      2.00000
     16      -5.7115      2.00000
     17      -3.9352      2.00000
     18      -3.6778      2.00000
     19      -3.3581      2.00000
     20      -3.2047      2.00000
     21      -2.9978      2.00000
     22      -2.9444      2.00000
     23      -2.9199      2.00000
     24      -2.8805      2.00000
     25      -2.6865      2.00000
     26       0.3690      2.00000
     27       0.6943      2.00000
     28       0.9302      2.00000
     29       5.9546      0.00000
     30       6.2464      0.00000
     31       6.6645      0.00000
     32       7.7034      0.00000
     33       7.9655      0.00000
     34       8.1190      0.00000
     35       9.0350      0.00000
     36       9.0564      0.00000
     37       9.4925      0.00000
     38       9.6610      0.00000
     39       9.9948      0.00000
     40      10.1998      0.00000

 k-point     6 :       0.2000    0.2000    0.2000
  band No.  band energies     occupation 
      1     -19.4506      2.00000
      2     -16.4336      2.00000
      3     -16.4035      2.00000
      4     -16.4035      2.00000
      5     -11.4720      2.00000
      6     -11.4720      2.00000
      7     -10.2732      2.00000
      8     -10.2732      2.00000
      9     -10.2515      2.00000
     10      -7.7812      2.00000
     11      -6.3274      2.00000
     12      -6.3274      2.00000
     13      -6.2459      2.00000
     14      -5.8209      2.00000
     15      -5.7499      2.00000
     16      -5.7499      2.00000
     17      -3.8007      2.00000
     18      -3.4527      2.00000
     19      -3.4527      2.00000
     20      -2.9922      2.00000
     21      -2.9922      2.00000
     22      -2.9605      2.00000
     23      -2.9349      2.00000
     24      -2.9349      2.00000
     25      -2.7832      2.00000
     26       0.5413      2.00000
     27       0.5413      2.00000
     28       0.8088      2.00000
     29       6.0948      0.00000
     30       6.0948      0.00000
     31       6.2935      0.00000
     32       7.7648      0.00000
     33       8.7606      0.00000
     34       8.9507      0.00000
     35       8.9585      0.00000
     36       9.1400      0.00000
     37       9.1610      0.00000
     38       9.1836      0.00000
     39       9.9836      0.00000
     40      10.2838      0.00000

 k-point     7 :      -0.2000    0.2000    0.2000
  band No.  band energies     occupation 
      1     -19.4651      2.00000
      2     -16.4067      2.00000
      3     -16.3883      2.00000
      4     -16.3882      2.00000
      5     -11.6244      2.00000
      6     -11.5077      2.00000
      7     -10.2763      2.00000
      8     -10.1533      2.00000
      9     -10.1532      2.00000
     10      -8.2137      2.00000
     11      -6.2654      2.00000
     12      -6.0156      2.00000
     13      -6.0155      2.00000
     14      -5.8834      2.00000
     15      -5.7744      2.00000
     16      -5.7742      2.00000
     17      -3.6028      2.00000
     18      -3.5365      2.00000
     19      -3.3412      2.00000
     20      -3.3409      2.00000
     21      -3.2029      2.00000
     22      -2.8849      2.00000
     23      -2.8842      2.00000
     24      -2.8416      2.00000
     25      -2.7016      2.00000
     26       0.5298      2.00000
     27       0.5902      2.00000
     28       0.5907      2.00000
     29       6.1111      0.00000
     30       6.7401      0.00000
     31       6.7403      0.00000
     32       7.0499      0.00000
     33       7.6288      0.00000
     34       8.4726      0.00000
     35       8.6652      0.00000
     36       9.6196      0.00000
     37       9.8050      0.00000
     38      10.1906      0.00000
     39      10.2637      0.00000
     40      10.3608      0.00000

 k-point     8 :      -0.4000    0.4000    0.2000
  band No.  band energies     occupation 
      1     -19.4485      2.00000
      2     -16.4364      2.00000
      3     -16.4024      2.00000
      4     -16.3942      2.00000
      5     -11.6482      2.00000
      6     -11.5497      2.00000
      7     -10.2331      2.00000
      8     -10.1482      2.00000
      9     -10.1125      2.00000
     10      -7.9495      2.00000
     11      -6.2951      2.00000
     12      -6.0990      2.00000
     13      -5.9739      2.00000
     14      -5.7865      2.00000
     15      -5.7336      2.00000
     16      -5.7083      2.00000
     17      -3.9708      2.00000
     18      -3.6511      2.00000
     19      -3.5808      2.00000
     20      -3.4132      2.00000
     21      -3.1433      2.00000
     22      -2.8965      2.00000
     23      -2.8797      2.00000
     24      -2.8401      2.00000
     25      -2.7772      2.00000
     26       0.5565      2.00000
     27       0.7619      2.00000
     28       0.9470      2.00000
     29       6.2095      0.00000
     30       6.5440      0.00000
     31       6.7340      0.00000
     32       7.0383      0.00000
     33       7.4590      0.00000
     34       8.1851      0.00000
     35       8.5947      0.00000
     36       9.1055      0.00000
     37       9.3159      0.00000
     38      10.1736      0.00000
     39      10.4824      0.00000
     40      10.5953      0.00000

 k-point     9 :      -0.4000   -0.4000    0.2000
  band No.  band energies     occupation 
      1     -19.4415      2.00000
      2     -16.4270      2.00000
      3     -16.4269      2.00000
      4     -16.3964      2.00000
      5     -11.6400      2.00000
      6     -11.6400      2.00000
      7     -10.1583      2.00000
      8     -10.1142      2.00000
      9     -10.1140      2.00000
     10      -7.8891      2.00000
     11      -6.0934      2.00000
     12      -6.0852      2.00000
     13      -6.0850      2.00000
     14      -5.7291      2.00000
     15      -5.7288      2.00000
     16      -5.6858      2.00000
     17      -3.9656      2.00000
     18      -3.9651      2.00000
     19      -3.6294      2.00000
     20      -3.3285      2.00000
     21      -3.3284      2.00000
     22      -2.8832      2.00000
     23      -2.8611      2.00000
     24      -2.8601      2.00000
     25      -2.8452      2.00000
     26       0.6530      2.00000
     27       0.9675      2.00000
     28       0.9682      2.00000
     29       6.2566      0.00000
     30       6.6205      0.00000
     31       6.6206      0.00000
     32       7.2357      0.00000
     33       7.2358      0.00000
     34       8.0036      0.00000
     35       8.7735      0.00000
     36       8.7748      0.00000
     37       8.8419      0.00000
     38      10.5656      0.00000
     39      10.7582      0.00000
     40      10.8325      0.00000

 k-point    10 :      -0.4000    0.4000    0.4000
  band No.  band energies     occupation 
      1     -19.4364      2.00000
      2     -16.4241      2.00000
      3     -16.4170      2.00000
      4     -16.4169      2.00000
      5     -11.7242      2.00000
      6     -11.6859      2.00000
      7     -10.0987      2.00000
      8     -10.0587      2.00000
      9     -10.0586      2.00000
     10      -7.9109      2.00000
     11      -6.0730      2.00000
     12      -5.9562      2.00000
     13      -5.9559      2.00000
     14      -5.7053      2.00000
     15      -5.6829      2.00000
     16      -5.6827      2.00000
     17      -4.0026      2.00000
     18      -3.8616      2.00000
     19      -3.8613      2.00000
     20      -3.6547      2.00000
     21      -3.4357      2.00000
     22      -3.0337      2.00000
     23      -2.8289      2.00000
     24      -2.8282      2.00000
     25      -2.8144      2.00000
     26       0.9686      2.00000
     27       0.9886      2.00000
     28       0.9892      2.00000
     29       6.6081      0.00000
     30       6.6515      0.00000
     31       6.8897      0.00000
     32       6.8897      0.00000
     33       7.0404      0.00000
     34       7.9638      0.00000
     35       8.3027      0.00000
     36       8.5914      0.00000
     37       8.5916      0.00000
     38      10.4701      0.00000
     39      10.6350      0.00000
     40      10.8721      0.00000


--------------------------------------------------------------------------------------------------------


 soft charge-density along one line, spin component           1
         0         1         2         3         4         5         6         7         8         9
 total charge-density along one line

 pseudopotential strength for first ion, spin component:           1
 -2.510  -5.332   0.001  -0.001   0.001
 -5.332 -11.304   0.003  -0.003   0.003
  0.001   0.003  -1.409  -0.004   0.004
 -0.001  -0.003  -0.004  -1.409  -0.004
  0.001   0.003   0.004  -0.004  -1.409
 total augmentation occupancy for first ion, spin component:           1
  3.346  -0.453  -0.126   0.126  -0.126
 -0.453   0.074   0.018  -0.018   0.018
 -0.126   0.018   0.006  -0.004   0.004
  0.126  -0.018  -0.004   0.006  -0.004
 -0.126   0.018   0.004  -0.004   0.006


------------------------ aborting loop because EDIFF is reached ----------------------------------------


    FORLOC:  cpu time      0.0033: real time      0.0034
    FORNL :  cpu time      0.0482: real time      0.0482
    FORCOR:  cpu time      0.4969: real time      0.4969
    OFIELD:  cpu time      0.0022: real time      0.0024

 VOLUME and BASIS-vectors are now :
 -----------------------------------------------------------------------------
  energy-cutoff  :     1000.00
  volume of cell :      168.04
      direct lattice vectors                 reciprocal lattice vectors
    -3.476325100  3.476325100  3.476325100    -0.000000000  0.143830046  0.143830046
     3.476325100 -3.476325100  3.476325100     0.143830046 -0.000000000  0.143830046
     3.476325100  3.476325100 -3.476325100     0.143830046  0.143830046 -0.000000000

  length of vectors
     6.021171697  6.021171697  6.021171697     0.203406402  0.203406402  0.203406402


 FORCES acting on ions:
    Electron-Ion                     Ewald-Force                    Non-Local-Force
 -----------------------------------------------------------------------------------------------
   -.493E+02 -.277E+02 0.277E+02   0.527E+02 0.310E+02 -.310E+02   -.336E+01 -.334E+01 0.334E+01
   0.277E+02 -.493E+02 -.277E+02   -.310E+02 0.527E+02 0.310E+02   0.334E+01 -.336E+01 -.334E+01
   0.493E+02 -.277E+02 -.277E+02   -.527E+02 0.310E+02 0.310E+02   0.336E+01 -.334E+01 -.334E+01
   0.277E+02 -.277E+02 -.493E+02   -.310E+02 0.310E+02 0.527E+02   0.334E+01 -.334E+01 -.336E+01
   -.277E+02 -.493E+02 0.277E+02   0.310E+02 0.527E+02 -.310E+02   -.334E+01 -.336E+01 0.334E+01
   -.277E+02 0.277E+02 -.493E+02   0.310E+02 -.310E+02 0.527E+02   -.334E+01 0.334E+01 -.336E+01
   0.493E+02 0.277E+02 0.277E+02   -.527E+02 -.310E+02 -.310E+02   0.336E+01 0.334E+01 0.334E+01
   0.277E+02 0.493E+02 0.277E+02   -.310E+02 -.527E+02 -.310E+02   0.334E+01 0.336E+01 0.334E+01
   -.277E+02 0.493E+02 -.277E+02   0.310E+02 -.527E+02 0.310E+02   -.334E+01 0.336E+01 -.334E+01
   -.493E+02 0.277E+02 -.277E+02   0.527E+02 -.310E+02 0.310E+02   -.336E+01 0.334E+01 -.334E+01
   -.277E+02 -.277E+02 0.493E+02   0.310E+02 0.310E+02 -.527E+02   -.334E+01 -.334E+01 0.336E+01
   0.277E+02 0.277E+02 0.493E+02   -.310E+02 -.310E+02 -.527E+02   0.334E+01 0.334E+01 0.336E+01
   -.192E+03 0.387E-07 0.103E-07   0.198E+03 -.191E-03 -.191E-03   -.608E+01 -.463E-16 0.186E-16
   0.387E-07 -.192E+03 0.103E-07   -.191E-03 0.198E+03 -.191E-03   -.733E-17 -.608E+01 -.204E-16
   0.192E+03 -.101E-05 -.110E-05   -.198E+03 0.534E-04 0.534E-04   0.608E+01 -.412E-16 0.412E-16
   0.210E-08 0.210E-08 -.192E+03   -.191E-03 -.191E-03 0.198E+03   0.400E-16 -.259E-16 -.608E+01
   -.101E-05 0.192E+03 -.110E-05   0.534E-04 -.198E+03 0.534E-04   -.503E-16 0.608E+01 -.608E-16
   -.984E-06 -.984E-06 0.192E+03   0.534E-04 0.534E-04 -.198E+03   -.226E-17 -.460E-16 0.608E+01
   -.133E+03 -.133E+03 -.133E+03   0.151E+03 0.151E+03 0.151E+03   -.173E+02 -.173E+02 -.173E+02
   0.133E+03 -.133E+03 0.133E+03   -.151E+03 0.151E+03 -.151E+03   0.173E+02 -.173E+02 0.173E+02
   0.133E+03 0.133E+03 -.133E+03   -.151E+03 -.151E+03 0.151E+03   0.173E+02 0.173E+02 -.173E+02
   -.133E+03 0.133E+03 0.133E+03   0.151E+03 -.151E+03 -.151E+03   -.173E+02 0.173E+02 0.173E+02
 -----------------------------------------------------------------------------------------------
   0.149E-01 0.149E-01 0.149E-01   -.284E-13 0.000E+00 0.000E+00   0.000E+00 0.711E-14 0.107E-13


 POSITION                                       TOTAL-FORCE (eV/Angst)
 -----------------------------------------------------------------------------------
      2.63776      0.95716     -0.31904         0.023269     -0.002947      0.002947
     -0.31904      2.63776      0.95716         0.002947      0.023269     -0.002947
      4.95296      0.95716      0.95716        -0.023269     -0.002947     -0.002947
     -0.31904      0.95716      2.63776         0.002947     -0.002947      0.023269
      0.95716      2.63776     -0.31904        -0.002947      0.023269      0.002947
      0.95716     -0.31904      2.63776        -0.002947      0.002947      0.023269
      1.47666      3.15726      3.15726        -0.023269      0.002947      0.002947
      3.15726      1.47666      3.15726         0.002947     -0.023269      0.002947
      0.95716      4.95296      0.95716        -0.002947     -0.023269     -0.002947
      2.63776     -0.31904      0.95716         0.023269      0.002947     -0.002947
      0.95716      0.95716      4.95296        -0.002947     -0.002947     -0.023269
      3.15726      3.15726      1.47666         0.002947      0.002947     -0.023269
      2.00886      0.31906      0.31906         0.209842     -0.000000      0.000000
      0.31906      2.00886      0.31906         0.000000      0.209842     -0.000000
      5.58196      0.31906      0.31906        -0.209842     -0.000000     -0.000000
      0.31906      0.31906      2.00886         0.000000     -0.000000      0.209842
      0.31906      5.58196      0.31906         0.000000     -0.209842      0.000000
      0.31906      0.31906      5.58196         0.000000     -0.000000     -0.209842
      1.18656      1.18656      1.18656         0.131974      0.131974      0.131974
      2.92786     -2.28974      2.92786        -0.131974      0.131974     -0.131974
      2.92786      2.92786     -2.28974        -0.131974     -0.131974      0.131974
     -2.28974      2.92786      2.92786         0.131974     -0.131974     -0.131974
 -----------------------------------------------------------------------------------
    total drift:                                0.014924      0.014924      0.014923


--------------------------------------------------------------------------------------------------------



  FREE ENERGIE OF THE ION-ELECTRON SYSTEM (eV)
  ---------------------------------------------------
  free  energy   TOTEN  =      -116.42846799 eV

  energy  without entropy=     -116.42846799  energy(sigma->0) =     -116.42846799



--------------------------------------------------------------------------------------------------------


    POTLOK:  cpu time      0.4986: real time      0.4988


--------------------------------------------------------------------------------------------------------


 stress matrix after NEB project (eV)
      0.00000      0.00000      0.00000
      0.00000      0.00000      0.00000
      0.00000      0.00000      0.00000
  FORCES: max atom, RMS     0.228585    0.147696
  FORCE total and by dimension    0.692758    0.209842
  Stress total and by dimension    0.000000    0.000000
     LOOP+:  cpu time     31.7184: real time     32.0318
    4ORBIT:  cpu time      0.0000: real time      0.0000

 total amount of memory used by VASP MPI-rank0    33326. kBytes
=======================================================================

   base      :      30000. kBytes
   nonl-proj :        436. kBytes
   fftplans  :        702. kBytes
   grid      :       1225. kBytes
   one-center:          3. kBytes
   wavefun   :        960. kBytes

  
  
 General timing and accounting informations for this job:
 ========================================================
  
                  Total CPU time used (sec):       49.943
                            User time (sec):       47.878
                          System time (sec):        2.065
                         Elapsed time (sec):       54.062
  
                   Maximum memory used (kb):      279180.
                   Average memory used (kb):          N/A
  
                          Minor page faults:       112634
                          Major page faults:          233
                 Voluntary context switches:         6305
