 vasp.6.4.1 05Apr23 (build Jun  6 2023 14:36:51) complex                         
 executed on        HPECrayEX_GCC date 2024.08.20  14:58:34
 running  256 mpi-ranks, with    1 threads/rank, on    2 nodes
 distrk:  each k-point on  256 cores,    1 groups
 distr:  one band on NCORE=  64 cores,    4 groups


--------------------------------------------------------------------------------------------------------


 INCAR:
   ALGO = Conjugate
   NPAR = 4
   ISMEAR = 0
   SIGMA = 0.01
   PREC = Accurate
   EDIFF = 1E-7
   ENCUT = 1000
   ISIF = 0
   GGA = RE
   LUSE_VDW = .TRUE.
   AGGAC = 0.0000
   LASPH = .TRUE.
   LWAVE = .FALSE.
   LCHARGE = .FALSE.

 POTCAR:    PAW_PBE H_h 06Feb2004                 
 POTCAR:    PAW_PBE C_h 06Feb2004                 
 POTCAR:    PAW_PBE N_h 06Feb2004                 
 -----------------------------------------------------------------------------
|                                                                             |
|               ----> ADVICE to this user running VASP <----                  |
|                                                                             |
|     You have switched on vdW-DFT.                                           |
|     This routine was written and supplied by Jiri Klimes. We recommend      |
|     that you carefully read and cite the following publications:            |
|       J. Klimes, D.R. Bowler, A. Michelides                                 |
|          J. Phys.: Cond Matt. 22 022201 (2010)                              |
|       J. Klimes, D.R. Bowler, A. Michelides                                 |
|          Phys. Rev. B. 83, 195131 (2011)                                    |
|     and references therein.                                                 |
|                                                                             |
 -----------------------------------------------------------------------------

 POTCAR:    PAW_PBE H_h 06Feb2004                 
   VRHFIN =H: ultrasoft test                                                                        
   LEXCH  = PE                                                                                      
   EATOM  =    12.4884 eV,    0.9179 Ry                                                             
                                                                                                    
   TITEL  = PAW_PBE H_h 06Feb2004                                                                   
   LULTRA =        F    use ultrasoft PP ?                                                          
   IUNSCR =        0    unscreen: 0-lin 1-nonlin 2-no                                               
   RPACOR =    0.000    partial core radius                                                         
   POMASS =    1.000; ZVAL   =    1.000    mass and valenz                                          
   RCORE  =    0.800    outmost cutoff radius                                                       
   RWIGS  =    0.700; RWIGS  =    0.370    wigner-seitz radius (au A)                               
   ENMAX  =  700.000; ENMIN  =  350.000 eV                                                          
   RCLOC  =    0.701    cutoff for local pot                                                        
   LCOR   =        T    correct aug charges                                                         
   LPAW   =        T    paw PP                                                                      
   EAUG   = 1000.000                                                                                
   RMAX   =    0.819    core radius for proj-oper                                                   
   RAUG   =    1.000    factor for augmentation sphere                                              
   RDEP   =    0.817    radius for radial grids                                                     
   RDEPT  =    0.817    core radius for aug-charge                                                  
                                                                                                    
   Atomic configuration                                                                             
    2 entries                                                                                       
     n  l   j            E        occ.                                                              
     1  0  0.50        -6.4927   1.0000                                                             
     2  1  0.50        -3.4015   0.0000                                                             
   Description                                                                                      
     l       E           TYP  RCUT    TYP  RCUT                                                     
     0     -6.4927493     23  0.800                                                                 
     0      6.8029130     23  0.800                                                                 
     1     -6.8029130     23  0.800                                                                 
  local pseudopotential read in
  atomic valenz-charges read in
  non local Contribution for L=           0  read in
    real space projection operators read in
  non local Contribution for L=           0  read in
    real space projection operators read in
  non local Contribution for L=           1  read in
    real space projection operators read in
    PAW grid and wavefunctions read in

   number of l-projection  operators is LMAX  =           3
   number of lm-projection operators is LMMAX =           5

 POTCAR:    PAW_PBE C_h 06Feb2004                 
   VRHFIN =C: s2p2                                                                                  
   LEXCH  = PE                                                                                      
   EATOM  =   147.1560 eV,   10.8157 Ry                                                             
                                                                                                    
   TITEL  = PAW_PBE C_h 06Feb2004                                                                   
   LULTRA =        F    use ultrasoft PP ?                                                          
   IUNSCR =        1    unscreen: 0-lin 1-nonlin 2-no                                               
   RPACOR =    0.800    partial core radius                                                         
   POMASS =   12.011; ZVAL   =    4.000    mass and valenz                                          
   RCORE  =    1.100    outmost cutoff radius                                                       
   RWIGS  =    1.630; RWIGS  =    0.863    wigner-seitz radius (au A)                               
   ENMAX  =  700.000; ENMIN  =  500.000 eV                                                          
   ICORE  =        2    local potential                                                             
   LCOR   =        T    correct aug charges                                                         
   LPAW   =        T    paw PP                                                                      
   EAUG   =  946.768                                                                                
   DEXC   =    0.000                                                                                
   RMAX   =    1.128    core radius for proj-oper                                                   
   RAUG   =    1.300    factor for augmentation sphere                                              
   RDEP   =    1.162    radius for radial grids                                                     
   RDEPT  =    1.088    core radius for aug-charge                                                  
                                                                                                    
   Atomic configuration                                                                             
    4 entries                                                                                       
     n  l   j            E        occ.                                                              
     1  0  0.50      -273.3789   2.0000                                                             
     2  0  0.50       -13.7508   2.0000                                                             
     2  1  0.50        -5.2854   2.0000                                                             
     3  2  1.50        -5.4423   0.0000                                                             
   Description                                                                                      
     l       E           TYP  RCUT    TYP  RCUT                                                     
     0    -13.7508458     23  1.100                                                                 
     0     -8.2022199     23  1.100                                                                 
     1     -5.2854383     23  1.100                                                                 
     1      1.1560700     23  1.100                                                                 
     2     -5.4423304      7  1.100                                                                 
  local pseudopotential read in
  partial core-charges read in
  partial kinetic energy density read in
  atomic valenz-charges read in
  non local Contribution for L=           0  read in
    real space projection operators read in
  non local Contribution for L=           0  read in
    real space projection operators read in
  non local Contribution for L=           1  read in
    real space projection operators read in
  non local Contribution for L=           1  read in
    real space projection operators read in
    PAW grid and wavefunctions read in

   number of l-projection  operators is LMAX  =           4
   number of lm-projection operators is LMMAX =           8

 POTCAR:    PAW_PBE N_h 06Feb2004                 
   VRHFIN =N: s2p3                                                                                  
   LEXCH  = PE                                                                                      
   EATOM  =   264.5486 eV,   19.4438 Ry                                                             
                                                                                                    
   TITEL  = PAW_PBE N_h 06Feb2004                                                                   
   LULTRA =        F    use ultrasoft PP ?                                                          
   IUNSCR =        1    unscreen: 0-lin 1-nonlin 2-no                                               
   RPACOR =    0.800    partial core radius                                                         
   POMASS =   14.001; ZVAL   =    5.000    mass and valenz                                          
   RCORE  =    1.100    outmost cutoff radius                                                       
   RWIGS  =    1.480; RWIGS  =    0.783    wigner-seitz radius (au A)                               
   ENMAX  =  700.000; ENMIN  =  500.000 eV                                                          
   ICORE  =        2    local potential                                                             
   LCOR   =        T    correct aug charges                                                         
   LPAW   =        T    paw PP                                                                      
   EAUG   =  904.640                                                                                
   DEXC   =    0.000                                                                                
   RMAX   =    1.127    core radius for proj-oper                                                   
   RAUG   =    1.300    factor for augmentation sphere                                              
   RDEP   =    1.115    radius for radial grids                                                     
   RDEPT  =    1.106    core radius for aug-charge                                                  
                                                                                                    
   Atomic configuration                                                                             
    4 entries                                                                                       
     n  l   j            E        occ.                                                              
     1  0  0.50      -384.7179   2.0000                                                             
     2  0  0.50       -18.5828   2.0000                                                             
     2  1  0.50        -7.0898   3.0000                                                             
     3  2  1.50        -6.8029   0.0000                                                             
   Description                                                                                      
     l       E           TYP  RCUT    TYP  RCUT                                                     
     0    -18.5828117     23  1.100                                                                 
     0    -15.0750597     23  1.100                                                                 
     1     -7.0897851     23  1.100                                                                 
     1     -1.9663412     23  1.100                                                                 
     2     -6.8029130      7  1.100                                                                 
  local pseudopotential read in
  partial core-charges read in
  partial kinetic energy density read in
  kinetic energy density of atom read in
  atomic valenz-charges read in
  non local Contribution for L=           0  read in
    real space projection operators read in
  non local Contribution for L=           0  read in
    real space projection operators read in
  non local Contribution for L=           1  read in
    real space projection operators read in
  non local Contribution for L=           1  read in
    real space projection operators read in
    PAW grid and wavefunctions read in

   number of l-projection  operators is LMAX  =           4
   number of lm-projection operators is LMMAX =           8

 -----------------------------------------------------------------------------
|                                                                             |
|               ----> ADVICE to this user running VASP <----                  |
|                                                                             |
|     You have a (more or less) 'large supercell' and for larger cells it     |
|     might be more efficient to use real-space projection operators.         |
|     Therefore, try LREAL= Auto in the INCAR file.                           |
|     Mind: For very accurate calculation, you might also keep the            |
|     reciprocal projection scheme (i.e. LREAL=.FALSE.).                      |
|                                                                             |
 -----------------------------------------------------------------------------

 -----------------------------------------------------------------------------
|                                                                             |
|               ----> ADVICE to this user running VASP <----                  |
|                                                                             |
|     You enforced a specific xc type in the INCAR file but a different       |
|     type was found in the POTCAR file.                                      |
|     I HOPE YOU KNOW WHAT YOU ARE DOING!                                     |
|                                                                             |
 -----------------------------------------------------------------------------

  PAW_PBE H_h 06Feb2004                 :
 energy of atom  1       EATOM=  -12.4884
 kinetic energy error for atom=    0.0006 (will be added to EATOM!!)
  PAW_PBE C_h 06Feb2004                 :
 energy of atom  2       EATOM= -147.1560
 kinetic energy error for atom=    0.0031 (will be added to EATOM!!)
  PAW_PBE N_h 06Feb2004                 :
 energy of atom  3       EATOM= -264.5486
 kinetic energy error for atom=    0.0081 (will be added to EATOM!!)


 POSCAR:  H  C  N
  positions in cartesian coordinates
  No initial velocities read in
 exchange correlation table for  LEXCH =       40
   RHO(1)=    0.500       N(1)  =     2000
   RHO(2)=  100.500       N(2)  =     4000

 VTST: version 4.1, (05/19/21)

 CHAIN: initializing optimizer
 
 OPT: Using VASP Dynamics algorithm
 CHAIN: Read ICHAIN            0

 POSCAR:  H  C  N
  positions in cartesian coordinates
  No initial velocities read in



--------------------------------------------------------------------------------------------------------


 ion  position               nearest neighbor table
   1  0.092  0.334  0.517-  13 1.10
   2  0.517  0.092  0.334-  14 1.10
   3  0.275  0.850  0.850-  15 1.10
   4  0.517  0.334  0.092-  16 1.10
   5  0.334  0.092  0.517-  14 1.10
   6  0.334  0.517  0.092-  16 1.10
   7  0.908  0.666  0.666-  15 1.10
   8  0.666  0.908  0.666-  17 1.10
   9  0.850  0.275  0.850-  17 1.10
  10  0.092  0.517  0.334-  13 1.10
  11  0.850  0.850  0.275-  18 1.10
  12  0.666  0.666  0.908-  18 1.10
  13  0.092  0.335  0.335-  10 1.10   1 1.10  19 1.48  22 1.48
  14  0.335  0.092  0.335-   2 1.10   5 1.10  19 1.48  20 1.48
  15  0.092  0.849  0.849-   3 1.10   7 1.10  21 1.48  20 1.48
  16  0.335  0.335  0.092-   6 1.10   4 1.10  19 1.48  21 1.48
  17  0.849  0.092  0.849-   9 1.10   8 1.10  21 1.48  22 1.48
  18  0.849  0.849  0.092-  11 1.10  12 1.10  22 1.48  20 1.48
  19  0.341  0.341  0.341-  13 1.48  14 1.48  16 1.48
  20  0.092  0.842  0.092-  15 1.48  18 1.48  14 1.48
  21  0.092  0.092  0.842-  15 1.48  17 1.48  16 1.48
  22  0.842  0.092  0.092-  17 1.48  18 1.48  13 1.48

  LATTYP: Found a body centered cubic cell.
 ALAT       =     6.9526502000
  
  Lattice vectors:
  
 A1 = (  -3.4763251000,   3.4763251000,   3.4763251000)
 A2 = (   3.4763251000,  -3.4763251000,   3.4763251000)
 A3 = (   3.4763251000,   3.4763251000,  -3.4763251000)


Analysis of symmetry for initial positions (statically):
=====================================================================
 Subroutine PRICEL returns:
 Original cell was already a primitive cell.
 

 Routine SETGRP: Setting up the symmetry group for a 
 body centered cubic supercell.


 Subroutine GETGRP returns: Found 24 space group operations
 (whereof  6 operations were pure point group operations)
 out of a pool of 48 trial point group operations.


The static configuration has the point symmetry C_3v.
 The point group associated with its full space group is T_d .


Analysis of symmetry for dynamics (positions and initial velocities):
=====================================================================
 Subroutine PRICEL returns:
 Original cell was already a primitive cell.
 

 Routine SETGRP: Setting up the symmetry group for a 
 body centered cubic supercell.


 Subroutine GETGRP returns: Found 24 space group operations
 (whereof  6 operations were pure point group operations)
 out of a pool of 48 trial point group operations.


The dynamic configuration has the point symmetry C_3v.
 The point group associated with its full space group is T_d .


 Subroutine INISYM returns: Found 24 space group operations
 (whereof  6 operations are pure point group operations),
 and found     1 'primitive' translations


----------------------------------------------------------------------------------------

                                     Primitive cell                                     

  volume of cell :     168.0433

  direct lattice vectors                    reciprocal lattice vectors
    -3.476325100  3.476325100  3.476325100    -0.000000000  0.143830046  0.143830046
     3.476325100 -3.476325100  3.476325100     0.143830046 -0.000000000  0.143830046
     3.476325100  3.476325100 -3.476325100     0.143830046  0.143830046 -0.000000000

  length of vectors
     6.021171697  6.021171697  6.021171697     0.203406402  0.203406402  0.203406402

  position of ions in fractional coordinates (direct lattice)
     0.091781563  0.333502338  0.517058243
     0.517058243  0.091781563  0.333502338
     0.275337468  0.850053567  0.850053567
     0.517058243  0.333502338  0.091781563
     0.333502338  0.091781563  0.517058243
     0.333502338  0.517058243  0.091781563
     0.908218437  0.666497662  0.666497662
     0.666497662  0.908218437  0.666497662
     0.850053567  0.275337468  0.850053567
     0.091781563  0.517058243  0.333502338
     0.850053567  0.850053567  0.275337468
     0.666497662  0.666497662  0.908218437
     0.091781563  0.334825575  0.334825575
     0.334825575  0.091781563  0.334825575
     0.091781563  0.848744713  0.848744713
     0.334825575  0.334825575  0.091781563
     0.848744713  0.091781563  0.848744713
     0.848744713  0.848744713  0.091781563
     0.341326693  0.341326693  0.341326693
     0.091781563  0.842229212  0.091781563
     0.091781563  0.091781563  0.842229212
     0.842229212  0.091781563  0.091781563

  ion indices of the primitive-cell ions
   primitive index   ion index
                 1           1
                 2           2
                 3           3
                 4           4
                 5           5
                 6           6
                 7           7
                 8           8
                 9           9
                10          10
                11          11
                12          12
                13          13
                14          14
                15          15
                16          16
                17          17
                18          18
                19          19
                20          20
                21          21
                22          22

----------------------------------------------------------------------------------------



 KPOINTS: auto                                    

Automatic generation of k-mesh.
 Grid dimensions read from file:
 generate k-points for:    5    5    5

 Generating k-lattice:

  Cartesian coordinates                     Fractional coordinates (reciprocal lattice)
    -0.000000000  0.028766009  0.028766009     0.200000000 -0.000000000  0.000000000
     0.028766009 -0.000000000  0.028766009    -0.000000000  0.200000000  0.000000000
     0.028766009  0.028766009 -0.000000000     0.000000000 -0.000000000  0.200000000

  Length of vectors
     0.040681280  0.040681280  0.040681280

  Shift w.r.t. Gamma in fractional coordinates (k-lattice)
     0.000000000  0.000000000  0.000000000

 
 Subroutine IBZKPT returns following result:
 ===========================================
 
 Found     10 irreducible k-points:
 
 Following reciprocal coordinates:
            Coordinates               Weight
  0.000000  0.000000  0.000000      1.000000
  0.200000  0.000000  0.000000     12.000000
  0.400000  0.000000  0.000000     12.000000
  0.200000  0.200000  0.000000     24.000000
  0.400000  0.200000  0.000000     24.000000
  0.200000  0.200000  0.200000      8.000000
 -0.200000  0.200000  0.200000      6.000000
 -0.400000  0.400000  0.200000     24.000000
 -0.400000 -0.400000  0.200000      8.000000
 -0.400000  0.400000  0.400000      6.000000
 
 Following cartesian coordinates:
            Coordinates               Weight
  0.000000  0.000000  0.000000      1.000000
  0.000000  0.028766  0.028766     12.000000
  0.000000  0.057532  0.057532     12.000000
  0.028766  0.028766  0.057532     24.000000
  0.028766  0.057532  0.086298     24.000000
  0.057532  0.057532  0.057532      8.000000
  0.057532  0.000000  0.000000      6.000000
  0.086298 -0.028766  0.000000     24.000000
 -0.028766 -0.028766 -0.115064      8.000000
  0.115064  0.000000  0.000000      6.000000
 


--------------------------------------------------------------------------------------------------------




 Dimension of arrays:
   k-points           NKPTS =     10   k-points in BZ     NKDIM =     10   number of bands    NBANDS=     40
   number of dos      NEDOS =    301   number of ions     NIONS =     22
   non local maximal  LDIM  =      4   non local SUM 2l+1 LMDIM =      8
   total plane-waves  NPLWV = 262144
   max r-space proj   IRMAX =      1   max aug-charges    IRDMAX=  11278
   dimension x,y,z NGX =    64 NGY =   64 NGZ =   64
   dimension x,y,z NGXF=   128 NGYF=  128 NGZF=  128
   support grid    NGXF=   128 NGYF=  128 NGZF=  128
   ions per type =              12   6   4
   NGX,Y,Z   is equivalent  to a cutoff of  17.67, 17.67, 17.67 a.u.
   NGXF,Y,Z  is equivalent  to a cutoff of  35.34, 35.34, 35.34 a.u.

 SYSTEM =  unknown system                          
 POSCAR =   H  C  N                                

 Startparameter for this run:
   NWRITE =      2    write-flag & timer
   PREC   = accura    normal or accurate (medium, high low for compatibility)
   ISTART =      0    job   : 0-new  1-cont  2-samecut
   ICHARG =      2    charge: 1-file 2-atom 10-const
   ISPIN  =      1    spin polarized calculation?
   LNONCOLLINEAR =      F non collinear calculations
   LSORBIT =      F    spin-orbit coupling
   INIWAV =      1    electr: 0-lowe 1-rand  2-diag
   LASPH  =      T    aspherical Exc in radial PAW
 Electronic Relaxation 1
   ENCUT  = 1000.0 eV  73.50 Ry    8.57 a.u.  15.53 15.53 15.53*2*pi/ulx,y,z
   ENINI  = 1000.0     initial cutoff
   ENAUG  = 1000.0 eV  augmentation charge cutoff
   NELM   =     60;   NELMIN=  2; NELMDL= -5     # of ELM steps 
   EDIFF  = 0.1E-06   stopping-criterion for ELM
   LREAL  =      F    real-space projection
   NLSPLINE    = F    spline interpolate recip. space projectors
   LCOMPAT=      F    compatible to vasp.4.4
   GGA_COMPAT  = T    GGA compatible to vasp.4.4-vasp.4.6
   LMAXPAW     = -100 max onsite density
   LMAXMIX     =    2 max onsite mixed and CHGCAR
   VOSKOWN=      0    Vosko Wilk Nusair interpolation
   ROPT   =    0.00000   0.00000   0.00000
 Ionic relaxation
   EDIFFG = 0.1E-05   stopping-criterion for IOM
   NSW    =      0    number of steps for IOM
   NBLOCK =      1;   KBLOCK =      1    inner block; outer block 
   IBRION =     -1    ionic relax: 0-MD 1-quasi-New 2-CG
   NFREE  =      0    steps in history (QN), initial steepest desc. (CG)
   ISIF   =      0    stress and relaxation
   IWAVPR =     10    prediction:  0-non 1-charg 2-wave 3-comb
   ISYM   =      2    0-nonsym 1-usesym 2-fastsym
   LCORR  =      T    Harris-Foulkes like correction to forces

   POTIM  = 0.5000    time-step for ionic-motion
   TEIN   =    0.0    initial temperature
   TEBEG  =    0.0;   TEEND  =   0.0 temperature during run
   SMASS  =  -3.00    Nose mass-parameter (am)
   estimated Nose-frequenzy (Omega)   =  0.10E-29 period in steps = 0.13E+47 mass=  -0.829E-27a.u.
   SCALEE = 1.0000    scale energy and forces
   NPACO  =    256;   APACO  = 10.0  distance and # of slots for P.C.
   PSTRESS=    0.0 pullay stress

  Mass of Ions in am
   POMASS =   1.00 12.01 14.00
  Ionic Valenz
   ZVAL   =   1.00  4.00  5.00
  Atomic Wigner-Seitz radii
   RWIGS  =  -1.00 -1.00 -1.00
  virtual crystal weights 
   VCA    =   1.00  1.00  1.00
   NELECT =      56.0000    total number of electrons
   NUPDOWN=      -1.0000    fix difference up-down

 DOS related values:
   EMIN   =  10.00;   EMAX   =-10.00  energy-range for DOS
   EFERMI =   0.00;   METHOD = LEGACY      
   ISMEAR =     0;   SIGMA  =   0.01  broadening in eV -4-tet -1-fermi 0-gaus

 Electronic relaxation 2 (details)
   IALGO  =     58    algorithm
   LDIAG  =      T    sub-space diagonalisation (order eigenvalues)
   LSUBROT=      F    optimize rotation matrix (better conditioning)
   TURBO    =      0    0=normal 1=particle mesh
   IRESTART =      0    0=no restart 2=restart with 2 vectors
   NREBOOT  =      0    no. of reboots
   NMIN     =      0    reboot dimension
   EREF     =   0.00    reference energy to select bands
   IMIX   =      4    mixing-type and parameters
     AMIX     =   0.40;   BMIX     =  1.00
     AMIX_MAG =   1.60;   BMIX_MAG =  1.00
     AMIN     =   0.10
     WC   =   100.;   INIMIX=   1;  MIXPRE=   1;  MAXMIX= -45

 Intra band minimization:
   WEIMIN = 0.0000     energy-eigenvalue tresh-hold
   EBREAK =  0.63E-09  absolut break condition
   DEPER  =   0.30     relativ break condition  

   TIME   =   0.40     timestep for ELM

  volume/ion in A,a.u.               =       7.64        51.55
  Fermi-wavevector in a.u.,A,eV,Ry     =   1.135003  2.144845 17.527467  1.288232
  Thomas-Fermi vector in A             =   2.271708

 Write flags
   LWAVE        =      F    write WAVECAR
   LDOWNSAMPLE  =      F    k-point downsampling of WAVECAR
   LCHARG       =      T    write CHGCAR
   LVTOT        =      F    write LOCPOT, total local potential
   LVHAR        =      F    write LOCPOT, Hartree potential only
   LELF         =      F    write electronic localiz. function (ELF)
   LORBIT       =      0    0 simple, 1 ext, 2 COOP (PROOUT), +10 PAW based schemes


 Dipole corrections
   LMONO  =      F    monopole corrections only (constant potential shift)
   LDIPOL =      F    correct potential (dipole corrections)
   IDIPOL =      0    1-x, 2-y, 3-z, 4-all directions 
   EPSILON=  1.0000000 bulk dielectric constant

 Exchange correlation treatment:
   GGA     =    RE    GGA type
   LEXCH   =    40    internal setting for exchange type
   LIBXC   =     F    Libxc                    
   VOSKOWN =     0    Vosko Wilk Nusair interpolation
   LHFCALC =     F    Hartree Fock is set to
   LHFONE  =     F    Hartree Fock one center treatment
   AEXX    =    0.0000 exact exchange contribution

 vdW DFT:
   LUSE_VDW   =     T    switch on vdW DFT
   IVDW_NL    =     1    kernel type
   LSPIN_VDW  =     F    use spin-polarized vdW DFT
   Zab_VDW    =-.8491    correlation parameter
   PARAM1     =0.1234
   PARAM2     =1.0000
   PARAM3     =0.0000
   -- rVV10 --
   BPARAM     = 6.3000
   CPARAM     = 0.0093

 Linear response parameters
   LEPSILON=     F    determine dielectric tensor
   LRPA    =     F    only Hartree local field effects (RPA)
   LNABLA  =     F    use nabla operator in PAW spheres
   LVEL    =     F    velocity operator in full k-point grid
   CSHIFT  =0.1000    complex shift for real part using Kramers Kronig
   OMEGAMAX=  -1.0    maximum frequency
   DEG_THRESHOLD= 0.2000000E-02 threshold for treating states as degnerate
   RTIME   =   -0.100 relaxation time in fs
  (WPLASMAI=    0.000 imaginary part of plasma frequency in eV, 0.658/RTIME)
   DFIELD  = 0.0000000 0.0000000 0.0000000 field for delta impulse in time

  Optional k-point grid parameters
   LKPOINTS_OPT  =     F    use optional k-point grid
   KPOINTS_OPT_MODE=     1    mode for optional k-point grid

 Orbital magnetization related:
   ORBITALMAG=     F  switch on orbital magnetization
   LCHIMAG   =     F  perturbation theory with respect to B field
   DQ        =  0.001000  dq finite difference perturbation B field
   LLRAUG    =     F  two centre corrections for induced B field
   LBONE     =     F  B-component reconstruction in AE one-centre
   LVGVCALC  =     T  calculate vGv susceptibility
   LVGVAPPL  =     F  apply vGv susceptibility instead of pGv for G=0

 Random number generation:
   RANDOM_GENERATOR = DEFAULT
   PCG_SEED         = not used


--------------------------------------------------------------------------------------------------------


 Static calculation
 charge density and potential will be updated during run
 non-spin polarized calculation
 Conjugate gradient for all bands (Freysoldt, et al. PRB 79, 241103 (2009))
 preconditioned conjugated gradient                                        
 perform sub-space diagonalisation
    before iterative eigenvector-optimisation
 modified Broyden-mixing scheme, WC =      100.0
 initial mixing is a Kerker type mixing with AMIX =  0.4000 and BMIX =      1.0000
 Hartree-type preconditioning will be used
 using additional bands           12
 reciprocal scheme for non local part
 use partial core corrections
 no Harris-corrections to forces 
 use gradient corrections 
 use of overlap-Matrix (Vanderbilt PP)
 Gauss-broadening in eV      SIGMA  =   0.01


--------------------------------------------------------------------------------------------------------


  energy-cutoff  :     1000.00
  volume of cell :      168.04
      direct lattice vectors                 reciprocal lattice vectors
    -3.476325100  3.476325100  3.476325100    -0.000000000  0.143830046  0.143830046
     3.476325100 -3.476325100  3.476325100     0.143830046 -0.000000000  0.143830046
     3.476325100  3.476325100 -3.476325100     0.143830046  0.143830046 -0.000000000

  length of vectors
     6.021171697  6.021171697  6.021171697     0.203406402  0.203406402  0.203406402



 k-points in units of 2pi/SCALE and weight: auto                                    
   0.00000000  0.00000000  0.00000000       0.008
   0.00000000  0.02876601  0.02876601       0.096
   0.00000000  0.05753202  0.05753202       0.096
   0.02876601  0.02876601  0.05753202       0.192
   0.02876601  0.05753202  0.08629803       0.192
   0.05753202  0.05753202  0.05753202       0.064
   0.05753202  0.00000000  0.00000000       0.048
   0.08629803 -0.02876601  0.00000000       0.192
  -0.02876601 -0.02876601 -0.11506404       0.064
   0.11506404  0.00000000  0.00000000       0.048

 k-points in reciprocal lattice and weights: auto                                    
   0.00000000  0.00000000  0.00000000       0.008
   0.20000000  0.00000000  0.00000000       0.096
   0.40000000  0.00000000  0.00000000       0.096
   0.20000000  0.20000000  0.00000000       0.192
   0.40000000  0.20000000  0.00000000       0.192
   0.20000000  0.20000000  0.20000000       0.064
  -0.20000000  0.20000000  0.20000000       0.048
  -0.40000000  0.40000000  0.20000000       0.192
  -0.40000000 -0.40000000  0.20000000       0.064
  -0.40000000  0.40000000  0.40000000       0.048

 position of ions in fractional coordinates (direct lattice) 
   0.09178156  0.33350234  0.51705824
   0.51705824  0.09178156  0.33350234
   0.27533747  0.85005357  0.85005357
   0.51705824  0.33350234  0.09178156
   0.33350234  0.09178156  0.51705824
   0.33350234  0.51705824  0.09178156
   0.90821844  0.66649766  0.66649766
   0.66649766  0.90821844  0.66649766
   0.85005357  0.27533747  0.85005357
   0.09178156  0.51705824  0.33350234
   0.85005357  0.85005357  0.27533747
   0.66649766  0.66649766  0.90821844
   0.09178156  0.33482557  0.33482557
   0.33482557  0.09178156  0.33482557
   0.09178156  0.84874471  0.84874471
   0.33482557  0.33482557  0.09178156
   0.84874471  0.09178156  0.84874471
   0.84874471  0.84874471  0.09178156
   0.34132669  0.34132669  0.34132669
   0.09178156  0.84222921  0.09178156
   0.09178156  0.09178156  0.84222921
   0.84222921  0.09178156  0.09178156

 position of ions in cartesian coordinates  (Angst):
   2.63776255  0.95716255 -0.31903745
  -0.31903745  2.63776255  0.95716255
   4.95296255  0.95716255  0.95716255
  -0.31903745  0.95716255  2.63776255
   0.95716255  2.63776255 -0.31903745
   0.95716255 -0.31903745  2.63776255
   1.47666255  3.15726255  3.15726255
   3.15726255  1.47666255  3.15726255
   0.95716255  4.95296255  0.95716255
   2.63776255 -0.31903745  0.95716255
   0.95716255  0.95716255  4.95296255
   3.15726255  3.15726255  1.47666255
   2.00886255  0.31906255  0.31906255
   0.31906255  2.00886255  0.31906255
   5.58196255  0.31906255  0.31906255
   0.31906255  0.31906255  2.00886255
   0.31906255  5.58196255  0.31906255
   0.31906255  0.31906255  5.58196255
   1.18656255  1.18656255  1.18656255
   2.92786255 -2.28973745  2.92786255
   2.92786255  2.92786255 -2.28973745
  -2.28973745  2.92786255  2.92786255



--------------------------------------------------------------------------------------------------------


 k-point   1 :   0.0000 0.0000 0.0000  plane waves:   12017
 k-point   2 :   0.2000 0.0000 0.0000  plane waves:   12071
 k-point   3 :   0.4000 0.0000 0.0000  plane waves:   12080
 k-point   4 :   0.2000 0.2000 0.0000  plane waves:   12053
 k-point   5 :   0.4000 0.2000 0.0000  plane waves:   12091
 k-point   6 :   0.2000 0.2000 0.2000  plane waves:   12085
 k-point   7 :  -0.2000 0.2000 0.2000  plane waves:   12102
 k-point   8 :  -0.4000 0.4000 0.2000  plane waves:   12062
 k-point   9 :  -0.4000-0.4000 0.2000  plane waves:   12073
 k-point  10 :  -0.4000 0.4000 0.4000  plane waves:   12014

 maximum and minimum number of plane-waves per node :       210      172

 maximum number of plane-waves:     12102
 maximum index in each direction: 
   IXMAX=   15   IYMAX=   15   IZMAX=   15
   IXMIN=  -15   IYMIN=  -15   IZMIN=  -15


 parallel 3D FFT for wavefunctions:
    minimum data exchange during FFTs selected (reduces bandwidth)
 parallel 3D FFT for charge:
    minimum data exchange during FFTs selected (reduces bandwidth)


 total amount of memory used by VASP MPI-rank0    33326. kBytes
=======================================================================

   base      :      30000. kBytes
   nonl-proj :        436. kBytes
   fftplans  :        702. kBytes
   grid      :       1225. kBytes
   one-center:          3. kBytes
   wavefun   :        960. kBytes

     INWAV:  cpu time      0.0000: real time      0.0000
 Broyden mixing: mesh for mixing (old mesh)
   NGX = 31   NGY = 31   NGZ = 31
  (NGX  =128   NGY  =128   NGZ  =128)
  gives a total of  29791 points

 initial charge density was supplied:
 charge density of overlapping atoms calculated
 number of electron      56.0000000 magnetization 
 keeping initial charge density in first step


--------------------------------------------------------------------------------------------------------


 Maximum index for augmentation-charges          217 (set IRDMAX)


--------------------------------------------------------------------------------------------------------


 First call to EWALD:  gamma=   0.321
 Maximum number of real-space cells 3x 3x 3
 Maximum number of reciprocal cells 3x 3x 3

    FEWALD:  cpu time      0.0024: real time      0.0025


--------------------------------------- Ionic step        1  -------------------------------------------




--------------------------------------- Iteration      1(   1)  ---------------------------------------


vdW kernel read from vdw_kernel.bindat
  0.0000  0.2424  0.5071  0.7962  1.1119  1.4567  1.8333  2.2446  2.6937  3.1842
  3.7199  4.3049  4.9438  5.6415  6.4036  7.2358  8.1446  9.1372 10.2212 11.4050
 12.6979 14.1099 15.6519 17.3360 19.1751 21.1837 23.3773 25.7729 28.3892 31.2465
 34.3669 37.7748 41.4965 45.5611 50.0000

    POTLOK:  cpu time      1.0546: real time      1.0997
    SETDIJ:  cpu time      0.0691: real time      0.0695
    TRIAL :  cpu time      0.4035: real time      0.4048
    CORREC:  cpu time      0.0028: real time      0.0028
    --------------------------------------------
      LOOP:  cpu time      1.5320: real time      1.5789

 eigenvalue-minimisations  :   800
 total energy-change (2. order) : 0.4179625E+03  (-0.4170239E+04)
 number of electron      56.0000000 magnetization 
 augmentation part       56.0000000 magnetization 

 Free energy of the ion-electron system (eV)
  ---------------------------------------------------
  alpha Z        PSCENC =        56.89320909
  Ewald energy   TEWEN  =      -822.09389158
  -Hartree energ DENC   =     -1122.58246755
  -exchange      EXHF   =         0.00000000
  -V(xc)+E(xc)   XCENC  =       133.99746621
  PAW double counting   =      1532.90367166    -1491.38151968
  entropy T*S    EENTRO =        -0.00067842
  eigenvalues    EBANDS =         9.22544991
  atomic energy  EATOM  =      2121.00121096
  ---------------------------------------------------
  free energy    TOTEN  =       417.96245060 eV

  energy without entropy =      417.96312902  energy(sigma->0) =      417.96278981


--------------------------------------------------------------------------------------------------------




--------------------------------------- Iteration      1(   2)  ---------------------------------------


    TRIAL :  cpu time      0.4359: real time      0.4360
    CORREC:  cpu time      0.0001: real time      0.0001
    --------------------------------------------
      LOOP:  cpu time      0.4480: real time      0.4644

 eigenvalue-minimisations  :  1088
 total energy-change (2. order) :-0.4816742E+03  (-0.4623692E+03)
 number of electron      56.0000000 magnetization 
 augmentation part       56.0000000 magnetization 

 Free energy of the ion-electron system (eV)
  ---------------------------------------------------
  alpha Z        PSCENC =        56.89320909
  Ewald energy   TEWEN  =      -822.09389158
  -Hartree energ DENC   =     -1122.58246755
  -exchange      EXHF   =         0.00000000
  -V(xc)+E(xc)   XCENC  =       133.99746621
  PAW double counting   =      1532.90367166    -1491.38151968
  entropy T*S    EENTRO =        -0.00000000
  eigenvalues    EBANDS =      -472.44942638
  atomic energy  EATOM  =      2121.00121096
  ---------------------------------------------------
  free energy    TOTEN  =       -63.71174727 eV

  energy without entropy =      -63.71174727  energy(sigma->0) =      -63.71174727


--------------------------------------------------------------------------------------------------------




--------------------------------------- Iteration      1(   3)  ---------------------------------------


    TRIAL :  cpu time      0.3976: real time      0.3979
    CORREC:  cpu time      0.0004: real time      0.0004
    --------------------------------------------
      LOOP:  cpu time      0.4108: real time      0.4271

 eigenvalue-minimisations  :   968
 total energy-change (2. order) :-0.5741098E+02  (-0.5703718E+02)
 number of electron      56.0000000 magnetization 
 augmentation part       56.0000000 magnetization 

 Free energy of the ion-electron system (eV)
  ---------------------------------------------------
  alpha Z        PSCENC =        56.89320909
  Ewald energy   TEWEN  =      -822.09389158
  -Hartree energ DENC   =     -1122.58246755
  -exchange      EXHF   =         0.00000000
  -V(xc)+E(xc)   XCENC  =       133.99746621
  PAW double counting   =      1532.90367166    -1491.38151968
  entropy T*S    EENTRO =        -0.00000000
  eigenvalues    EBANDS =      -529.86041057
  atomic energy  EATOM  =      2121.00121096
  ---------------------------------------------------
  free energy    TOTEN  =      -121.12273146 eV

  energy without entropy =     -121.12273146  energy(sigma->0) =     -121.12273146


--------------------------------------------------------------------------------------------------------




--------------------------------------- Iteration      1(   4)  ---------------------------------------


    TRIAL :  cpu time      0.4534: real time      0.4534
    CORREC:  cpu time      0.0001: real time      0.0001
    --------------------------------------------
      LOOP:  cpu time      0.4825: real time      0.4829

 eigenvalue-minimisations  :  1176
 total energy-change (2. order) :-0.1915466E+01  (-0.1910708E+01)
 number of electron      56.0000000 magnetization 
 augmentation part       56.0000000 magnetization 

 Free energy of the ion-electron system (eV)
  ---------------------------------------------------
  alpha Z        PSCENC =        56.89320909
  Ewald energy   TEWEN  =      -822.09389158
  -Hartree energ DENC   =     -1122.58246755
  -exchange      EXHF   =         0.00000000
  -V(xc)+E(xc)   XCENC  =       133.99746621
  PAW double counting   =      1532.90367166    -1491.38151968
  entropy T*S    EENTRO =        -0.00000000
  eigenvalues    EBANDS =      -531.77587695
  atomic energy  EATOM  =      2121.00121096
  ---------------------------------------------------
  free energy    TOTEN  =      -123.03819784 eV

  energy without entropy =     -123.03819784  energy(sigma->0) =     -123.03819784


--------------------------------------------------------------------------------------------------------




--------------------------------------- Iteration      1(   5)  ---------------------------------------


    TRIAL :  cpu time      0.4370: real time      0.4373
    CORREC:  cpu time      0.0001: real time      0.0001
    CHARGE:  cpu time      0.0778: real time      0.0783
    --------------------------------------------
      LOOP:  cpu time      0.5268: real time      0.5451

 eigenvalue-minimisations  :  1128
 total energy-change (2. order) :-0.4859777E-01  (-0.4857105E-01)
 number of electron      56.0000000 magnetization 
 augmentation part       -0.0553423 magnetization 

 Free energy of the ion-electron system (eV)
  ---------------------------------------------------
  alpha Z        PSCENC =        56.89320909
  Ewald energy   TEWEN  =      -822.09389158
  -Hartree energ DENC   =     -1122.58246755
  -exchange      EXHF   =         0.00000000
  -V(xc)+E(xc)   XCENC  =       133.99746621
  PAW double counting   =      1532.90367166    -1491.38151968
  entropy T*S    EENTRO =        -0.00000000
  eigenvalues    EBANDS =      -531.82447472
  atomic energy  EATOM  =      2121.00121096
  ---------------------------------------------------
  free energy    TOTEN  =      -123.08679561 eV

  energy without entropy =     -123.08679561  energy(sigma->0) =     -123.08679561


--------------------------------------------------------------------------------------------------------




--------------------------------------- Iteration      1(   6)  ---------------------------------------


    POTLOK:  cpu time      0.4196: real time      0.4196
    SETDIJ:  cpu time      0.0658: real time      0.0658
    TRIAL :  cpu time      0.2494: real time      0.2500
    CORREC:  cpu time      0.6994: real time      0.6996
    CHARGE:  cpu time      0.0635: real time      0.0635
    --------------------------------------------
      LOOP:  cpu time      1.5099: real time      1.5268

 eigenvalue-minimisations  :     0
 total energy-change (2. order) : 0.1611834E+02  (-0.6149469E+01)
 number of electron      56.0000000 magnetization 
 augmentation part       -0.0792682 magnetization 

 Free energy of the ion-electron system (eV)
  ---------------------------------------------------
  alpha Z        PSCENC =        56.89320909
  Ewald energy   TEWEN  =      -822.09389158
  -Hartree energ DENC   =     -1410.21102636
  -exchange      EXHF   =         0.00000000
  -V(xc)+E(xc)   XCENC  =       150.73502590
  PAW double counting   =     13671.68479325   -13632.25893927
  entropy T*S    EENTRO =        -0.00000000
  eigenvalues    EBANDS =      -242.71884168
  atomic energy  EATOM  =      2121.00121096
  ---------------------------------------------------
  free energy    TOTEN  =      -106.96845970 eV

  energy without entropy =     -106.96845970  energy(sigma->0) =     -106.96845970


--------------------------------------------------------------------------------------------------------




--------------------------------------- Iteration      1(   7)  ---------------------------------------


    POTLOK:  cpu time      0.4189: real time      0.4191
    SETDIJ:  cpu time      0.0658: real time      0.0658
    TRIAL :  cpu time      0.2280: real time      0.2280
    CORREC:  cpu time      0.6866: real time      0.6868
    CHARGE:  cpu time      0.0633: real time      0.0633
    --------------------------------------------
      LOOP:  cpu time      1.4775: real time      1.4924

 eigenvalue-minimisations  :     0
 total energy-change (2. order) :-0.6144254E+01  (-0.8815088E+00)
 number of electron      56.0000000 magnetization 
 augmentation part       -0.0944456 magnetization 

 Free energy of the ion-electron system (eV)
  ---------------------------------------------------
  alpha Z        PSCENC =        56.89320909
  Ewald energy   TEWEN  =      -822.09389158
  -Hartree energ DENC   =     -1279.75569025
  -exchange      EXHF   =         0.00000000
  -V(xc)+E(xc)   XCENC  =       144.87716124
  PAW double counting   =     18011.32979796   -17971.02934419
  entropy T*S    EENTRO =        -0.00000000
  eigenvalues    EBANDS =      -374.33516657
  atomic energy  EATOM  =      2121.00121096
  ---------------------------------------------------
  free energy    TOTEN  =      -113.11271334 eV

  energy without entropy =     -113.11271334  energy(sigma->0) =     -113.11271334


--------------------------------------------------------------------------------------------------------




--------------------------------------- Iteration      1(   8)  ---------------------------------------


    POTLOK:  cpu time      0.4200: real time      0.4201
    SETDIJ:  cpu time      0.0657: real time      0.0657
    TRIAL :  cpu time      0.2264: real time      0.2267
    CORREC:  cpu time      0.6896: real time      0.6897
    CHARGE:  cpu time      0.0633: real time      0.0633
    --------------------------------------------
      LOOP:  cpu time      1.4785: real time      1.4949

 eigenvalue-minimisations  :     0
 total energy-change (2. order) :-0.8767925E+00  (-0.2500438E+00)
 number of electron      56.0000000 magnetization 
 augmentation part       -0.0889251 magnetization 

 Free energy of the ion-electron system (eV)
  ---------------------------------------------------
  alpha Z        PSCENC =        56.89320909
  Ewald energy   TEWEN  =      -822.09389158
  -Hartree energ DENC   =     -1277.78289220
  -exchange      EXHF   =         0.00000000
  -V(xc)+E(xc)   XCENC  =       144.50688028
  PAW double counting   =     19298.93261041   -19258.46629531
  entropy T*S    EENTRO =        -0.00000000
  eigenvalues    EBANDS =      -376.98033751
  atomic energy  EATOM  =      2121.00121096
  ---------------------------------------------------
  free energy    TOTEN  =      -113.98950587 eV

  energy without entropy =     -113.98950587  energy(sigma->0) =     -113.98950587


--------------------------------------------------------------------------------------------------------




--------------------------------------- Iteration      1(   9)  ---------------------------------------


    POTLOK:  cpu time      0.4191: real time      0.4193
    SETDIJ:  cpu time      0.0660: real time      0.0660
    TRIAL :  cpu time      0.2257: real time      0.2257
    CORREC:  cpu time      0.6859: real time      0.6862
    CHARGE:  cpu time      0.0639: real time      0.0639
    --------------------------------------------
      LOOP:  cpu time      1.4732: real time      1.4896

 eigenvalue-minimisations  :     0
 total energy-change (2. order) :-0.2462156E+00  (-0.5773310E-01)
 number of electron      56.0000000 magnetization 
 augmentation part       -0.0880694 magnetization 

 Free energy of the ion-electron system (eV)
  ---------------------------------------------------
  alpha Z        PSCENC =        56.89320909
  Ewald energy   TEWEN  =      -822.09389158
  -Hartree energ DENC   =     -1269.20383250
  -exchange      EXHF   =         0.00000000
  -V(xc)+E(xc)   XCENC  =       144.22367258
  PAW double counting   =     18940.86190947   -18900.36719481
  entropy T*S    EENTRO =        -0.00000000
  eigenvalues    EBANDS =      -385.55080467
  atomic energy  EATOM  =      2121.00121096
  ---------------------------------------------------
  free energy    TOTEN  =      -114.23572146 eV

  energy without entropy =     -114.23572146  energy(sigma->0) =     -114.23572146


--------------------------------------------------------------------------------------------------------




--------------------------------------- Iteration      1(  10)  ---------------------------------------


    POTLOK:  cpu time      0.4197: real time      0.4197
    SETDIJ:  cpu time      0.0658: real time      0.0658
    TRIAL :  cpu time      0.2252: real time      0.2254
    CORREC:  cpu time      0.7172: real time      0.7173
    CHARGE:  cpu time      0.0638: real time      0.0638
    --------------------------------------------
      LOOP:  cpu time      1.5074: real time      1.5210

 eigenvalue-minimisations  :     0
 total energy-change (2. order) :-0.5759312E-01  (-0.1261741E-01)
 number of electron      56.0000000 magnetization 
 augmentation part       -0.0881431 magnetization 

 Free energy of the ion-electron system (eV)
  ---------------------------------------------------
  alpha Z        PSCENC =        56.89320909
  Ewald energy   TEWEN  =      -822.09389158
  -Hartree energ DENC   =     -1268.11720334
  -exchange      EXHF   =         0.00000000
  -V(xc)+E(xc)   XCENC  =       144.19628041
  PAW double counting   =     18350.20476260   -18309.73850194
  entropy T*S    EENTRO =        -0.00000000
  eigenvalues    EBANDS =      -386.63918076
  atomic energy  EATOM  =      2121.00121096
  ---------------------------------------------------
  free energy    TOTEN  =      -114.29331457 eV

  energy without entropy =     -114.29331457  energy(sigma->0) =     -114.29331457


--------------------------------------------------------------------------------------------------------




--------------------------------------- Iteration      1(  11)  ---------------------------------------


    POTLOK:  cpu time      0.4228: real time      0.4230
    SETDIJ:  cpu time      0.0659: real time      0.0659
    TRIAL :  cpu time      0.2257: real time      0.2257
    CORREC:  cpu time      0.6945: real time      0.6948
    CHARGE:  cpu time      0.0631: real time      0.0631
    --------------------------------------------
      LOOP:  cpu time      1.4839: real time      1.5024

 eigenvalue-minimisations  :     0
 total energy-change (2. order) :-0.1260661E-01  (-0.2824046E-02)
 number of electron      56.0000000 magnetization 
 augmentation part       -0.0884627 magnetization 

 Free energy of the ion-electron system (eV)
  ---------------------------------------------------
  alpha Z        PSCENC =        56.89320909
  Ewald energy   TEWEN  =      -822.09389158
  -Hartree energ DENC   =     -1268.30988627
  -exchange      EXHF   =         0.00000000
  -V(xc)+E(xc)   XCENC  =       144.16314987
  PAW double counting   =     18196.65073215   -18156.19733650
  entropy T*S    EENTRO =        -0.00000000
  eigenvalues    EBANDS =      -386.41310890
  atomic energy  EATOM  =      2121.00121096
  ---------------------------------------------------
  free energy    TOTEN  =      -114.30592119 eV

  energy without entropy =     -114.30592119  energy(sigma->0) =     -114.30592119


--------------------------------------------------------------------------------------------------------




--------------------------------------- Iteration      1(  12)  ---------------------------------------


    POTLOK:  cpu time      0.4238: real time      0.4239
    SETDIJ:  cpu time      0.0658: real time      0.0658
    TRIAL :  cpu time      0.2247: real time      0.2249
    CORREC:  cpu time      0.6928: real time      0.6928
    CHARGE:  cpu time      0.0651: real time      0.0651
    --------------------------------------------
      LOOP:  cpu time      1.4998: real time      1.5004

 eigenvalue-minimisations  :     0
 total energy-change (2. order) :-0.2821907E-02  (-0.7113792E-03)
 number of electron      56.0000000 magnetization 
 augmentation part       -0.0886208 magnetization 

 Free energy of the ion-electron system (eV)
  ---------------------------------------------------
  alpha Z        PSCENC =        56.89320909
  Ewald energy   TEWEN  =      -822.09389158
  -Hartree energ DENC   =     -1267.94501477
  -exchange      EXHF   =         0.00000000
  -V(xc)+E(xc)   XCENC  =       144.13388967
  PAW double counting   =     18232.51404999   -18192.06073787
  entropy T*S    EENTRO =        -0.00000000
  eigenvalues    EBANDS =      -386.75145858
  atomic energy  EATOM  =      2121.00121096
  ---------------------------------------------------
  free energy    TOTEN  =      -114.30874309 eV

  energy without entropy =     -114.30874309  energy(sigma->0) =     -114.30874309


--------------------------------------------------------------------------------------------------------




--------------------------------------- Iteration      1(  13)  ---------------------------------------


    POTLOK:  cpu time      0.4485: real time      0.4487
    SETDIJ:  cpu time      0.0658: real time      0.0658
    TRIAL :  cpu time      0.2241: real time      0.2241
    CORREC:  cpu time      0.6848: real time      0.6850
    CHARGE:  cpu time      0.0641: real time      0.0641
    --------------------------------------------
      LOOP:  cpu time      1.5111: real time      1.5267

 eigenvalue-minimisations  :     0
 total energy-change (2. order) :-0.7094219E-03  (-0.1886804E-03)
 number of electron      56.0000000 magnetization 
 augmentation part       -0.0886324 magnetization 

 Free energy of the ion-electron system (eV)
  ---------------------------------------------------
  alpha Z        PSCENC =        56.89320909
  Ewald energy   TEWEN  =      -822.09389158
  -Hartree energ DENC   =     -1268.33405651
  -exchange      EXHF   =         0.00000000
  -V(xc)+E(xc)   XCENC  =       144.14819175
  PAW double counting   =     18252.64903291   -18212.19771425
  entropy T*S    EENTRO =        -0.00000000
  eigenvalues    EBANDS =      -386.37543488
  atomic energy  EATOM  =      2121.00121096
  ---------------------------------------------------
  free energy    TOTEN  =      -114.30945252 eV

  energy without entropy =     -114.30945252  energy(sigma->0) =     -114.30945252


--------------------------------------------------------------------------------------------------------




--------------------------------------- Iteration      1(  14)  ---------------------------------------


    POTLOK:  cpu time      0.4182: real time      0.4182
    SETDIJ:  cpu time      0.0657: real time      0.0657
    TRIAL :  cpu time      0.2249: real time      0.2250
    CORREC:  cpu time      0.7841: real time      0.7841
    CHARGE:  cpu time      0.0635: real time      0.0635
    --------------------------------------------
      LOOP:  cpu time      1.5730: real time      1.5855

 eigenvalue-minimisations  :     0
 total energy-change (2. order) :-0.1892318E-03  (-0.4753236E-04)
 number of electron      56.0000000 magnetization 
 augmentation part       -0.0885647 magnetization 

 Free energy of the ion-electron system (eV)
  ---------------------------------------------------
  alpha Z        PSCENC =        56.89320909
  Ewald energy   TEWEN  =      -822.09389158
  -Hartree energ DENC   =     -1268.26189316
  -exchange      EXHF   =         0.00000000
  -V(xc)+E(xc)   XCENC  =       144.14528586
  PAW double counting   =     18261.82640554   -18221.37437923
  entropy T*S    EENTRO =        -0.00000000
  eigenvalues    EBANDS =      -386.44558923
  atomic energy  EATOM  =      2121.00121096
  ---------------------------------------------------
  free energy    TOTEN  =      -114.30964175 eV

  energy without entropy =     -114.30964175  energy(sigma->0) =     -114.30964175


--------------------------------------------------------------------------------------------------------




--------------------------------------- Iteration      1(  15)  ---------------------------------------


    POTLOK:  cpu time      0.4203: real time      0.4203
    SETDIJ:  cpu time      0.0688: real time      0.0688
    TRIAL :  cpu time      0.2251: real time      0.2251
    CORREC:  cpu time      0.6874: real time      0.6876
    CHARGE:  cpu time      0.0629: real time      0.0629
    --------------------------------------------
      LOOP:  cpu time      1.4932: real time      1.4937

 eigenvalue-minimisations  :     0
 total energy-change (2. order) :-0.4784125E-04  (-0.1439545E-04)
 number of electron      56.0000000 magnetization 
 augmentation part       -0.0885558 magnetization 

 Free energy of the ion-electron system (eV)
  ---------------------------------------------------
  alpha Z        PSCENC =        56.89320909
  Ewald energy   TEWEN  =      -822.09389158
  -Hartree energ DENC   =     -1268.34134644
  -exchange      EXHF   =         0.00000000
  -V(xc)+E(xc)   XCENC  =       144.14794479
  PAW double counting   =     18261.19647368   -18220.74451733
  entropy T*S    EENTRO =        -0.00000000
  eigenvalues    EBANDS =      -386.36877275
  atomic energy  EATOM  =      2121.00121096
  ---------------------------------------------------
  free energy    TOTEN  =      -114.30968959 eV

  energy without entropy =     -114.30968959  energy(sigma->0) =     -114.30968959


--------------------------------------------------------------------------------------------------------




--------------------------------------- Iteration      1(  16)  ---------------------------------------


    POTLOK:  cpu time      0.4177: real time      0.4178
    SETDIJ:  cpu time      0.0658: real time      0.0658
    TRIAL :  cpu time      0.2253: real time      0.2255
    CORREC:  cpu time      0.6888: real time      0.6888
    CHARGE:  cpu time      0.0632: real time      0.0632
    --------------------------------------------
      LOOP:  cpu time      1.4740: real time      1.4899

 eigenvalue-minimisations  :     0
 total energy-change (2. order) :-0.1456699E-04  (-0.5527436E-05)
 number of electron      56.0000000 magnetization 
 augmentation part       -0.0885675 magnetization 

 Free energy of the ion-electron system (eV)
  ---------------------------------------------------
  alpha Z        PSCENC =        56.89320909
  Ewald energy   TEWEN  =      -822.09389158
  -Hartree energ DENC   =     -1268.31492895
  -exchange      EXHF   =         0.00000000
  -V(xc)+E(xc)   XCENC  =       144.14739806
  PAW double counting   =     18262.15077528   -18221.69856645
  entropy T*S    EENTRO =        -0.00000000
  eigenvalues    EBANDS =      -386.39491056
  atomic energy  EATOM  =      2121.00121096
  ---------------------------------------------------
  free energy    TOTEN  =      -114.30970416 eV

  energy without entropy =     -114.30970416  energy(sigma->0) =     -114.30970416


--------------------------------------------------------------------------------------------------------




--------------------------------------- Iteration      1(  17)  ---------------------------------------


    POTLOK:  cpu time      0.4228: real time      0.4230
    SETDIJ:  cpu time      0.0659: real time      0.0659
    TRIAL :  cpu time      0.2258: real time      0.2258
    CORREC:  cpu time      0.6877: real time      0.6880
    CHARGE:  cpu time      0.0632: real time      0.0632
    --------------------------------------------
      LOOP:  cpu time      1.4777: real time      1.4942

 eigenvalue-minimisations  :     0
 total energy-change (2. order) :-0.5365935E-05  (-0.1592015E-05)
 number of electron      56.0000000 magnetization 
 augmentation part       -0.0885810 magnetization 

 Free energy of the ion-electron system (eV)
  ---------------------------------------------------
  alpha Z        PSCENC =        56.89320909
  Ewald energy   TEWEN  =      -822.09389158
  -Hartree energ DENC   =     -1268.33525034
  -exchange      EXHF   =         0.00000000
  -V(xc)+E(xc)   XCENC  =       144.14836433
  PAW double counting   =     18263.24860426   -18222.79639636
  entropy T*S    EENTRO =        -0.00000000
  eigenvalues    EBANDS =      -386.37555988
  atomic energy  EATOM  =      2121.00121096
  ---------------------------------------------------
  free energy    TOTEN  =      -114.30970952 eV

  energy without entropy =     -114.30970952  energy(sigma->0) =     -114.30970952


--------------------------------------------------------------------------------------------------------




--------------------------------------- Iteration      1(  18)  ---------------------------------------


    POTLOK:  cpu time      0.4283: real time      0.4283
    SETDIJ:  cpu time      0.0657: real time      0.0659
    TRIAL :  cpu time      0.2257: real time      0.2257
    CORREC:  cpu time      0.6867: real time      0.6867
    CHARGE:  cpu time      0.0635: real time      0.0635
    --------------------------------------------
      LOOP:  cpu time      1.4988: real time      1.4993

 eigenvalue-minimisations  :     0
 total energy-change (2. order) :-0.1591823E-05  (-0.5251364E-06)
 number of electron      56.0000000 magnetization 
 augmentation part       -0.0885780 magnetization 

 Free energy of the ion-electron system (eV)
  ---------------------------------------------------
  alpha Z        PSCENC =        56.89320909
  Ewald energy   TEWEN  =      -822.09389158
  -Hartree energ DENC   =     -1268.31206911
  -exchange      EXHF   =         0.00000000
  -V(xc)+E(xc)   XCENC  =       144.14749485
  PAW double counting   =     18263.06882874   -18222.61652451
  entropy T*S    EENTRO =        -0.00000000
  eigenvalues    EBANDS =      -386.39796955
  atomic energy  EATOM  =      2121.00121096
  ---------------------------------------------------
  free energy    TOTEN  =      -114.30971111 eV

  energy without entropy =     -114.30971111  energy(sigma->0) =     -114.30971111


--------------------------------------------------------------------------------------------------------




--------------------------------------- Iteration      1(  19)  ---------------------------------------


    POTLOK:  cpu time      0.4187: real time      0.4190
    SETDIJ:  cpu time      0.0658: real time      0.0658
    TRIAL :  cpu time      0.2241: real time      0.2241
    CORREC:  cpu time      0.6879: real time      0.6882
    CHARGE:  cpu time      0.0638: real time      0.0638
    --------------------------------------------
      LOOP:  cpu time      1.4758: real time      1.4903

 eigenvalue-minimisations  :     0
 total energy-change (2. order) :-0.4913763E-06  (-0.1107316E-06)
 number of electron      56.0000000 magnetization 
 augmentation part       -0.0885807 magnetization 

 Free energy of the ion-electron system (eV)
  ---------------------------------------------------
  alpha Z        PSCENC =        56.89320909
  Ewald energy   TEWEN  =      -822.09389158
  -Hartree energ DENC   =     -1268.32558833
  -exchange      EXHF   =         0.00000000
  -V(xc)+E(xc)   XCENC  =       144.14800224
  PAW double counting   =     18261.79052794   -18221.33833527
  entropy T*S    EENTRO =        -0.00000000
  eigenvalues    EBANDS =      -386.38484665
  atomic energy  EATOM  =      2121.00121096
  ---------------------------------------------------
  free energy    TOTEN  =      -114.30971160 eV

  energy without entropy =     -114.30971160  energy(sigma->0) =     -114.30971160


--------------------------------------------------------------------------------------------------------




--------------------------------------- Iteration      1(  20)  ---------------------------------------


    POTLOK:  cpu time      0.4183: real time      0.4184
    SETDIJ:  cpu time      0.0658: real time      0.0658
    TRIAL :  cpu time      0.2244: real time      0.2247
    CORREC:  cpu time      0.6860: real time      0.6860
    CHARGE:  cpu time      0.0635: real time      0.0635
    --------------------------------------------
      LOOP:  cpu time      1.4701: real time      1.4873

 eigenvalue-minimisations  :     0
 total energy-change (2. order) :-0.1113149E-06  (-0.4554026E-07)
 number of electron      56.0000000 magnetization 
 augmentation part       -0.0885815 magnetization 

 Free energy of the ion-electron system (eV)
  ---------------------------------------------------
  alpha Z        PSCENC =        56.89320909
  Ewald energy   TEWEN  =      -822.09389158
  -Hartree energ DENC   =     -1268.31762901
  -exchange      EXHF   =         0.00000000
  -V(xc)+E(xc)   XCENC  =       144.14770835
  PAW double counting   =     18261.65449528   -18221.20227201
  entropy T*S    EENTRO =        -0.00000000
  eigenvalues    EBANDS =      -386.39254280
  atomic energy  EATOM  =      2121.00121096
  ---------------------------------------------------
  free energy    TOTEN  =      -114.30971172 eV

  energy without entropy =     -114.30971172  energy(sigma->0) =     -114.30971172


--------------------------------------------------------------------------------------------------------




--------------------------------------- Iteration      1(  21)  ---------------------------------------


    POTLOK:  cpu time      0.4207: real time      0.4209
    SETDIJ:  cpu time      0.0658: real time      0.0658
    TRIAL :  cpu time      0.2245: real time      0.2245
    CORREC:  cpu time      0.6850: real time      0.6853
    EDDIAG:  cpu time      0.1512: real time      0.1516
    CHARGE:  cpu time      0.0631: real time      0.0631
    --------------------------------------------
      LOOP:  cpu time      1.6223: real time      1.6404

 eigenvalue-minimisations  :     0
 total energy-change (2. order) :-0.4511458E-07  (-0.2118061E-07)
 number of electron      56.0000000 magnetization 
 augmentation part       -0.0885796 magnetization 

 Free energy of the ion-electron system (eV)
  ---------------------------------------------------
  alpha Z        PSCENC =        56.89320909
  Ewald energy   TEWEN  =      -822.09389158
  -Hartree energ DENC   =     -1268.31714645
  -exchange      EXHF   =         0.00000000
  -V(xc)+E(xc)   XCENC  =       144.14767537
  PAW double counting   =     18261.73269432   -18221.28046306
  entropy T*S    EENTRO =        -0.00000000
  eigenvalues    EBANDS =      -386.39300040
  atomic energy  EATOM  =      2121.00121096
  ---------------------------------------------------
  free energy    TOTEN  =      -114.30971176 eV

  energy without entropy =     -114.30971176  energy(sigma->0) =     -114.30971176


--------------------------------------------------------------------------------------------------------


  average scaling for gradient   0.9228


 average (electrostatic) potential at core
  the test charge radii are     0.4325  0.5770  0.5902
  (the norm of the test charge is              1.0000)
       1 -40.4932       2 -40.4932       3 -40.4915       4 -40.4932       5 -40.4932
       6 -40.4932       7 -40.4914       8 -40.4914       9 -40.4915      10 -40.4932
      11 -40.4915      12 -40.4914      13 -82.1929      14 -82.1929      15 -82.1918
      16 -82.1929      17 -82.1918      18 -82.1918      19 -98.0133      20 -98.0139
      21 -98.0139      22 -98.0139



 E-fermi :   1.0282     XC(G=0):  -8.5441     alpha+bet : -7.9003

 Fermi energy:         1.0281885169

 k-point     1 :       0.0000    0.0000    0.0000
  band No.  band energies     occupation 
      1     -19.4810      2.00000
      2     -16.3874      2.00000
      3     -16.3874      2.00000
      4     -16.3872      2.00000
      5     -11.5898      2.00000
      6     -11.5898      2.00000
      7     -10.2067      2.00000
      8     -10.2067      2.00000
      9     -10.2065      2.00000
     10      -8.5788      2.00000
     11      -5.9680      2.00000
     12      -5.9677      2.00000
     13      -5.9677      2.00000
     14      -5.9389      2.00000
     15      -5.9389      2.00000
     16      -5.9385      2.00000
     17      -3.5885      2.00000
     18      -3.5885      2.00000
     19      -3.0640      2.00000
     20      -3.0640      2.00000
     21      -3.0634      2.00000
     22      -2.8999      2.00000
     23      -2.8989      2.00000
     24      -2.8989      2.00000
     25      -2.6131      2.00000
     26       0.3478      2.00000
     27       0.3478      2.00000
     28       0.3486      2.00000
     29       5.6678      0.00000
     30       7.3732      0.00000
     31       7.3732      0.00000
     32       7.3734      0.00000
     33       8.4486      0.00000
     34       8.8747      0.00000
     35       8.8759      0.00000
     36       8.8793      0.00000
     37       9.9289      0.00000
     38       9.9467      0.00000
     39      10.2641      0.00000
     40      10.5404      0.00000

 k-point     2 :       0.2000    0.0000    0.0000
  band No.  band energies     occupation 
      1     -19.4693      2.00000
      2     -16.4150      2.00000
      3     -16.3958      2.00000
      4     -16.3906      2.00000
      5     -11.6000      2.00000
      6     -11.5552      2.00000
      7     -10.2411      2.00000
      8     -10.2267      2.00000
      9     -10.1856      2.00000
     10      -8.3707      2.00000
     11      -6.1505      2.00000
     12      -6.0540      2.00000
     13      -5.9975      2.00000
     14      -5.9226      2.00000
     15      -5.8558      2.00000
     16      -5.8124      2.00000
     17      -3.5515      2.00000
     18      -3.4007      2.00000
     19      -3.3916      2.00000
     20      -3.2248      2.00000
     21      -3.0802      2.00000
     22      -2.9359      2.00000
     23      -2.9224      2.00000
     24      -2.9059      2.00000
     25      -2.6277      2.00000
     26       0.3331      2.00000
     27       0.4539      2.00000
     28       0.5663      2.00000
     29       5.9544      0.00000
     30       6.8410      0.00000
     31       6.9476      0.00000
     32       7.5145      0.00000
     33       8.2792      0.00000
     34       8.9160      0.00000
     35       9.0225      0.00000
     36       9.4386      0.00000
     37       9.4671      0.00000
     38       9.6593      0.00000
     39      10.2026      0.00000
     40      10.3922      0.00000

 k-point     3 :       0.4000    0.0000    0.0000
  band No.  band energies     occupation 
      1     -19.4501      2.00000
      2     -16.4599      2.00000
      3     -16.4093      2.00000
      4     -16.3958      2.00000
      5     -11.6170      2.00000
      6     -11.4950      2.00000
      7     -10.2999      2.00000
      8     -10.2479      2.00000
      9     -10.1526      2.00000
     10      -7.9846      2.00000
     11      -6.3829      2.00000
     12      -6.2375      2.00000
     13      -5.9722      2.00000
     14      -5.8338      2.00000
     15      -5.7543      2.00000
     16      -5.7026      2.00000
     17      -3.9408      2.00000
     18      -3.5457      2.00000
     19      -3.4158      2.00000
     20      -3.2387      2.00000
     21      -3.0074      2.00000
     22      -3.0022      2.00000
     23      -2.9538      2.00000
     24      -2.9109      2.00000
     25      -2.6251      2.00000
     26       0.3075      2.00000
     27       0.5788      2.00000
     28       0.9206      2.00000
     29       6.0408      0.00000
     30       6.5037      0.00000
     31       6.8906      0.00000
     32       7.5155      0.00000
     33       8.1804      0.00000
     34       8.6487      0.00000
     35       8.7607      0.00000
     36       9.0661      0.00000
     37       9.6515      0.00000
     38       9.9191      0.00000
     39       9.9911      0.00000
     40      10.2812      0.00000

 k-point     4 :       0.2000    0.2000    0.0000
  band No.  band energies     occupation 
      1     -19.4538      2.00000
      2     -16.4443      2.00000
      3     -16.4102      2.00000
      4     -16.3985      2.00000
      5     -11.5987      2.00000
      6     -11.5239      2.00000
      7     -10.2850      2.00000
      8     -10.2025      2.00000
      9     -10.2010      2.00000
     10      -8.0711      2.00000
     11      -6.3157      2.00000
     12      -6.1490      2.00000
     13      -6.0588      2.00000
     14      -5.8523      2.00000
     15      -5.7600      2.00000
     16      -5.7379      2.00000
     17      -3.8020      2.00000
     18      -3.5295      2.00000
     19      -3.3261      2.00000
     20      -3.2463      2.00000
     21      -3.1078      2.00000
     22      -2.9690      2.00000
     23      -2.9583      2.00000
     24      -2.9210      2.00000
     25      -2.6734      2.00000
     26       0.3759      2.00000
     27       0.5759      2.00000
     28       0.7989      2.00000
     29       6.2134      0.00000
     30       6.4884      0.00000
     31       6.5990      0.00000
     32       7.7955      0.00000
     33       8.0452      0.00000
     34       8.5549      0.00000
     35       8.9852      0.00000
     36       9.5134      0.00000
     37       9.5709      0.00000
     38       9.6071      0.00000
     39      10.0758      0.00000
     40      10.3625      0.00000

 k-point     5 :       0.4000    0.2000    0.0000
  band No.  band energies     occupation 
      1     -19.4441      2.00000
      2     -16.4581      2.00000
      3     -16.4248      2.00000
      4     -16.4021      2.00000
      5     -11.5897      2.00000
      6     -11.5136      2.00000
      7     -10.2860      2.00000
      8     -10.2354      2.00000
      9     -10.1834      2.00000
     10      -7.8622      2.00000
     11      -6.3569      2.00000
     12      -6.2663      2.00000
     13      -6.0994      2.00000
     14      -5.7872      2.00000
     15      -5.7361      2.00000
     16      -5.6874      2.00000
     17      -3.9461      2.00000
     18      -3.6893      2.00000
     19      -3.3766      2.00000
     20      -3.2208      2.00000
     21      -3.0203      2.00000
     22      -2.9940      2.00000
     23      -2.9687      2.00000
     24      -2.9340      2.00000
     25      -2.6943      2.00000
     26       0.3791      2.00000
     27       0.6952      2.00000
     28       0.9254      2.00000
     29       6.0609      0.00000
     30       6.3525      0.00000
     31       6.7687      0.00000
     32       7.8095      0.00000
     33       8.0860      0.00000
     34       8.2203      0.00000
     35       9.1341      0.00000
     36       9.1372      0.00000
     37       9.5790      0.00000
     38       9.7469      0.00000
     39      10.0709      0.00000
     40      10.2898      0.00000

 k-point     6 :       0.2000    0.2000    0.2000
  band No.  band energies     occupation 
      1     -19.4449      2.00000
      2     -16.4491      2.00000
      3     -16.4195      2.00000
      4     -16.4195      2.00000
      5     -11.5018      2.00000
      6     -11.5018      2.00000
      7     -10.2809      2.00000
      8     -10.2809      2.00000
      9     -10.2605      2.00000
     10      -7.7999      2.00000
     11      -6.3362      2.00000
     12      -6.3362      2.00000
     13      -6.2539      2.00000
     14      -5.7962      2.00000
     15      -5.7257      2.00000
     16      -5.7257      2.00000
     17      -3.8133      2.00000
     18      -3.4729      2.00000
     19      -3.4729      2.00000
     20      -3.0141      2.00000
     21      -3.0141      2.00000
     22      -3.0092      2.00000
     23      -2.9856      2.00000
     24      -2.9856      2.00000
     25      -2.7850      2.00000
     26       0.5465      2.00000
     27       0.5465      2.00000
     28       0.8077      2.00000
     29       6.2005      0.00000
     30       6.2005      0.00000
     31       6.3969      0.00000
     32       7.8839      0.00000
     33       8.8844      0.00000
     34       9.0481      0.00000
     35       9.0559      0.00000
     36       9.2251      0.00000
     37       9.2438      0.00000
     38       9.2801      0.00000
     39      10.0874      0.00000
     40      10.4301      0.00000

 k-point     7 :      -0.2000    0.2000    0.2000
  band No.  band energies     occupation 
      1     -19.4593      2.00000
      2     -16.4227      2.00000
      3     -16.4045      2.00000
      4     -16.4044      2.00000
      5     -11.6529      2.00000
      6     -11.5374      2.00000
      7     -10.2848      2.00000
      8     -10.1602      2.00000
      9     -10.1601      2.00000
     10      -8.2248      2.00000
     11      -6.2747      2.00000
     12      -6.0245      2.00000
     13      -6.0243      2.00000
     14      -5.8588      2.00000
     15      -5.7629      2.00000
     16      -5.7627      2.00000
     17      -3.6095      2.00000
     18      -3.5560      2.00000
     19      -3.3599      2.00000
     20      -3.3595      2.00000
     21      -3.2182      2.00000
     22      -2.9348      2.00000
     23      -2.9341      2.00000
     24      -2.8924      2.00000
     25      -2.7035      2.00000
     26       0.5353      2.00000
     27       0.5925      2.00000
     28       0.5931      2.00000
     29       6.2164      0.00000
     30       6.8483      0.00000
     31       6.8485      0.00000
     32       7.1628      0.00000
     33       7.7321      0.00000
     34       8.5695      0.00000
     35       8.7675      0.00000
     36       9.7084      0.00000
     37       9.9035      0.00000
     38      10.2735      0.00000
     39      10.3280      0.00000
     40      10.4251      0.00000

 k-point     8 :      -0.4000    0.4000    0.2000
  band No.  band energies     occupation 
      1     -19.4428      2.00000
      2     -16.4517      2.00000
      3     -16.4183      2.00000
      4     -16.4103      2.00000
      5     -11.6759      2.00000
      6     -11.5783      2.00000
      7     -10.2414      2.00000
      8     -10.1567      2.00000
      9     -10.1197      2.00000
     10      -7.9677      2.00000
     11      -6.3043      2.00000
     12      -6.1122      2.00000
     13      -5.9924      2.00000
     14      -5.7656      2.00000
     15      -5.7108      2.00000
     16      -5.6870      2.00000
     17      -3.9797      2.00000
     18      -3.6611      2.00000
     19      -3.5921      2.00000
     20      -3.4261      2.00000
     21      -3.1598      2.00000
     22      -2.9485      2.00000
     23      -2.9297      2.00000
     24      -2.8940      2.00000
     25      -2.7803      2.00000
     26       0.5602      2.00000
     27       0.7600      2.00000
     28       0.9411      2.00000
     29       6.3155      0.00000
     30       6.6506      0.00000
     31       6.8401      0.00000
     32       7.1452      0.00000
     33       7.5646      0.00000
     34       8.3173      0.00000
     35       8.6743      0.00000
     36       9.1949      0.00000
     37       9.4028      0.00000
     38      10.2526      0.00000
     39      10.5304      0.00000
     40      10.6444      0.00000

 k-point     9 :      -0.4000   -0.4000    0.2000
  band No.  band energies     occupation 
      1     -19.4360      2.00000
      2     -16.4425      2.00000
      3     -16.4423      2.00000
      4     -16.4125      2.00000
      5     -11.6675      2.00000
      6     -11.6675      2.00000
      7     -10.1654      2.00000
      8     -10.1229      2.00000
      9     -10.1228      2.00000
     10      -7.9096      2.00000
     11      -6.1141      2.00000
     12      -6.0999      2.00000
     13      -6.0996      2.00000
     14      -5.7063      2.00000
     15      -5.7061      2.00000
     16      -5.6609      2.00000
     17      -3.9720      2.00000
     18      -3.9715      2.00000
     19      -3.6395      2.00000
     20      -3.3413      2.00000
     21      -3.3412      2.00000
     22      -2.9143      2.00000
     23      -2.9133      2.00000
     24      -2.9007      2.00000
     25      -2.8803      2.00000
     26       0.6538      2.00000
     27       0.9604      2.00000
     28       0.9612      2.00000
     29       6.3627      0.00000
     30       6.7270      0.00000
     31       6.7271      0.00000
     32       7.3410      0.00000
     33       7.3410      0.00000
     34       8.1393      0.00000
     35       8.8561      0.00000
     36       8.8575      0.00000
     37       8.9369      0.00000
     38      10.6351      0.00000
     39      10.7992      0.00000
     40      10.8949      0.00000

 k-point    10 :      -0.4000    0.4000    0.4000
  band No.  band energies     occupation 
      1     -19.4309      2.00000
      2     -16.4396      2.00000
      3     -16.4326      2.00000
      4     -16.4325      2.00000
      5     -11.7507      2.00000
      6     -11.7128      2.00000
      7     -10.1073      2.00000
      8     -10.0666      2.00000
      9     -10.0664      2.00000
     10      -7.9331      2.00000
     11      -6.0915      2.00000
     12      -5.9791      2.00000
     13      -5.9789      2.00000
     14      -5.6805      2.00000
     15      -5.6595      2.00000
     16      -5.6593      2.00000
     17      -4.0076      2.00000
     18      -3.8672      2.00000
     19      -3.8668      2.00000
     20      -3.6590      2.00000
     21      -3.4449      2.00000
     22      -3.0244      2.00000
     23      -2.8845      2.00000
     24      -2.8837      2.00000
     25      -2.8702      2.00000
     26       0.9612      2.00000
     27       0.9804      2.00000
     28       0.9809      2.00000
     29       6.7147      0.00000
     30       6.7596      0.00000
     31       6.9959      0.00000
     32       6.9960      0.00000
     33       7.1464      0.00000
     34       8.1076      0.00000
     35       8.3904      0.00000
     36       8.6742      0.00000
     37       8.6745      0.00000
     38      10.5428      0.00000
     39      10.6938      0.00000
     40      10.9371      0.00000


--------------------------------------------------------------------------------------------------------


 soft charge-density along one line, spin component           1
         0         1         2         3         4         5         6         7         8         9
 total charge-density along one line

 pseudopotential strength for first ion, spin component:           1
 -2.512  -5.338   0.002  -0.002   0.002
 -5.338 -11.318   0.003  -0.003   0.003
  0.002   0.003  -1.408  -0.005   0.005
 -0.002  -0.003  -0.005  -1.408  -0.005
  0.002   0.003   0.005  -0.005  -1.408
 total augmentation occupancy for first ion, spin component:           1
  3.221  -0.407  -0.124   0.124  -0.124
 -0.407   0.066   0.016  -0.016   0.016
 -0.124   0.016   0.006  -0.004   0.004
  0.124  -0.016  -0.004   0.006  -0.004
 -0.124   0.016   0.004  -0.004   0.006


------------------------ aborting loop because EDIFF is reached ----------------------------------------


    FORLOC:  cpu time      0.0054: real time      0.0054
    FORNL :  cpu time      0.0471: real time      0.0474
    FORCOR:  cpu time      0.4840: real time      0.4842
    OFIELD:  cpu time      0.0023: real time      0.0025

 VOLUME and BASIS-vectors are now :
 -----------------------------------------------------------------------------
  energy-cutoff  :     1000.00
  volume of cell :      168.04
      direct lattice vectors                 reciprocal lattice vectors
    -3.476325100  3.476325100  3.476325100    -0.000000000  0.143830046  0.143830046
     3.476325100 -3.476325100  3.476325100     0.143830046 -0.000000000  0.143830046
     3.476325100  3.476325100 -3.476325100     0.143830046  0.143830046 -0.000000000

  length of vectors
     6.021171697  6.021171697  6.021171697     0.203406402  0.203406402  0.203406402


 FORCES acting on ions:
    Electron-Ion                     Ewald-Force                    Non-Local-Force
 -----------------------------------------------------------------------------------------------
   -.493E+02 -.277E+02 0.277E+02   0.527E+02 0.310E+02 -.310E+02   -.339E+01 -.338E+01 0.338E+01
   0.277E+02 -.493E+02 -.277E+02   -.310E+02 0.527E+02 0.310E+02   0.338E+01 -.339E+01 -.338E+01
   0.493E+02 -.277E+02 -.277E+02   -.527E+02 0.310E+02 0.310E+02   0.339E+01 -.338E+01 -.338E+01
   0.277E+02 -.277E+02 -.493E+02   -.310E+02 0.310E+02 0.527E+02   0.338E+01 -.338E+01 -.339E+01
   -.277E+02 -.493E+02 0.277E+02   0.310E+02 0.527E+02 -.310E+02   -.338E+01 -.339E+01 0.338E+01
   -.277E+02 0.277E+02 -.493E+02   0.310E+02 -.310E+02 0.527E+02   -.338E+01 0.338E+01 -.339E+01
   0.493E+02 0.277E+02 0.277E+02   -.527E+02 -.310E+02 -.310E+02   0.339E+01 0.338E+01 0.338E+01
   0.277E+02 0.493E+02 0.277E+02   -.310E+02 -.527E+02 -.310E+02   0.338E+01 0.339E+01 0.338E+01
   -.277E+02 0.493E+02 -.277E+02   0.310E+02 -.527E+02 0.310E+02   -.338E+01 0.339E+01 -.338E+01
   -.493E+02 0.277E+02 -.277E+02   0.527E+02 -.310E+02 0.310E+02   -.339E+01 0.338E+01 -.338E+01
   -.277E+02 -.277E+02 0.493E+02   0.310E+02 0.310E+02 -.527E+02   -.338E+01 -.338E+01 0.339E+01
   0.277E+02 0.277E+02 0.493E+02   -.310E+02 -.310E+02 -.527E+02   0.338E+01 0.338E+01 0.339E+01
   -.191E+03 0.131E-07 -.156E-07   0.198E+03 -.191E-03 -.191E-03   -.583E+01 0.183E-16 0.233E-16
   0.131E-07 -.191E+03 -.156E-07   -.191E-03 0.198E+03 -.191E-03   0.126E-16 -.583E+01 -.265E-16
   0.191E+03 -.999E-06 -.109E-05   -.198E+03 0.534E-04 0.534E-04   0.583E+01 -.133E-16 0.272E-16
   -.293E-07 -.293E-07 -.191E+03   -.191E-03 -.191E-03 0.198E+03   -.320E-16 0.270E-16 -.583E+01
   -.999E-06 0.191E+03 -.109E-05   0.534E-04 -.198E+03 0.534E-04   -.266E-16 0.583E+01 0.405E-16
   -.973E-06 -.973E-06 0.191E+03   0.534E-04 0.534E-04 -.198E+03   -.198E-16 -.204E-16 0.583E+01
   -.133E+03 -.133E+03 -.133E+03   0.151E+03 0.151E+03 0.151E+03   -.174E+02 -.174E+02 -.174E+02
   0.133E+03 -.133E+03 0.133E+03   -.151E+03 0.151E+03 -.151E+03   0.174E+02 -.174E+02 0.174E+02
   0.133E+03 0.133E+03 -.133E+03   -.151E+03 -.151E+03 0.151E+03   0.174E+02 0.174E+02 -.174E+02
   -.133E+03 0.133E+03 0.133E+03   0.151E+03 -.151E+03 -.151E+03   -.174E+02 0.174E+02 0.174E+02
 -----------------------------------------------------------------------------------------------
   0.152E-01 0.152E-01 0.152E-01   -.284E-13 0.000E+00 0.000E+00   0.355E-14 0.107E-13 -.355E-14


 POSITION                                       TOTAL-FORCE (eV/Angst)
 -----------------------------------------------------------------------------------
      2.63776      0.95716     -0.31904        -0.023174     -0.073238      0.073238
     -0.31904      2.63776      0.95716         0.073238     -0.023174     -0.073238
      4.95296      0.95716      0.95716         0.023174     -0.073238     -0.073238
     -0.31904      0.95716      2.63776         0.073238     -0.073238     -0.023174
      0.95716      2.63776     -0.31904        -0.073238     -0.023174      0.073238
      0.95716     -0.31904      2.63776        -0.073238      0.073238     -0.023174
      1.47666      3.15726      3.15726         0.023174      0.073238      0.073238
      3.15726      1.47666      3.15726         0.073238      0.023174      0.073238
      0.95716      4.95296      0.95716        -0.073238      0.023174     -0.073238
      2.63776     -0.31904      0.95716        -0.023174      0.073238     -0.073238
      0.95716      0.95716      4.95296        -0.073238     -0.073238      0.023174
      3.15726      3.15726      1.47666         0.073238      0.073238      0.023174
      2.00886      0.31906      0.31906         0.526248      0.000000     -0.000000
      0.31906      2.00886      0.31906         0.000000      0.526248      0.000000
      5.58196      0.31906      0.31906        -0.526248      0.000000      0.000000
      0.31906      0.31906      2.00886         0.000000      0.000000      0.526248
      0.31906      5.58196      0.31906         0.000000     -0.526248     -0.000000
      0.31906      0.31906      5.58196         0.000000      0.000000     -0.526248
      1.18656      1.18656      1.18656         0.243480      0.243480      0.243480
      2.92786     -2.28974      2.92786        -0.243480      0.243480     -0.243480
      2.92786      2.92786     -2.28974        -0.243480     -0.243480      0.243480
     -2.28974      2.92786      2.92786         0.243480     -0.243480     -0.243480
 -----------------------------------------------------------------------------------
    total drift:                                0.015191      0.015191      0.015191


--------------------------------------------------------------------------------------------------------



  FREE ENERGIE OF THE ION-ELECTRON SYSTEM (eV)
  ---------------------------------------------------
  free  energy   TOTEN  =      -114.30971176 eV

  energy  without entropy=     -114.30971176  energy(sigma->0) =     -114.30971176



--------------------------------------------------------------------------------------------------------


    POTLOK:  cpu time      0.5029: real time      0.5029


--------------------------------------------------------------------------------------------------------


 stress matrix after NEB project (eV)
      0.00000      0.00000      0.00000
      0.00000      0.00000      0.00000
      0.00000      0.00000      0.00000
  FORCES: max atom, RMS     0.526248    0.337651
  FORCE total and by dimension    1.583726    0.526248
  Stress total and by dimension    0.000000    0.000000
     LOOP+:  cpu time     31.6068: real time     31.9719
    4ORBIT:  cpu time      0.0000: real time      0.0000

 total amount of memory used by VASP MPI-rank0    33326. kBytes
=======================================================================

   base      :      30000. kBytes
   nonl-proj :        436. kBytes
   fftplans  :        702. kBytes
   grid      :       1225. kBytes
   one-center:          3. kBytes
   wavefun   :        960. kBytes

  
  
 General timing and accounting informations for this job:
 ========================================================
  
                  Total CPU time used (sec):       49.925
                            User time (sec):       47.669
                          System time (sec):        2.256
                         Elapsed time (sec):       54.054
  
                   Maximum memory used (kb):      276236.
                   Average memory used (kb):          N/A
  
                          Minor page faults:       111974
                          Major page faults:          229
                 Voluntary context switches:         6246
