 vasp.6.4.1 05Apr23 (build Jun  6 2023 14:36:51) complex                         
 executed on        HPECrayEX_GCC date 2024.08.20  14:51:20
 running  256 mpi-ranks, with    1 threads/rank, on    2 nodes
 distrk:  each k-point on  256 cores,    1 groups
 distr:  one band on NCORE=   2 cores,  128 groups


--------------------------------------------------------------------------------------------------------


 INCAR:
   ALGO = Conjugate
   NCORE = 2
   PREC = Accurate
   EDIFF = 1E-7
   ENCUT = 1000
   ISMEAR = 0
   SIGMA = 0.01
   ISIF = 0
   SYMPREC = 1E-7
   GGA = RP
   IVDW = 11
   LWAVE = .FALSE.
   LCHARGE = .FALSE.
   LWAVE = .FALSE.
   LCHARGE = .FALSE.

 POTCAR:    PAW_PBE H_h 06Feb2004                 
 POTCAR:    PAW_PBE C_h 06Feb2004                 
 POTCAR:    PAW_PBE N_h 06Feb2004                 
 POTCAR:    PAW_PBE H_h 06Feb2004                 
   VRHFIN =H: ultrasoft test                                                                        
   LEXCH  = PE                                                                                      
   EATOM  =    12.4884 eV,    0.9179 Ry                                                             
                                                                                                    
   TITEL  = PAW_PBE H_h 06Feb2004                                                                   
   LULTRA =        F    use ultrasoft PP ?                                                          
   IUNSCR =        0    unscreen: 0-lin 1-nonlin 2-no                                               
   RPACOR =    0.000    partial core radius                                                         
   POMASS =    1.000; ZVAL   =    1.000    mass and valenz                                          
   RCORE  =    0.800    outmost cutoff radius                                                       
   RWIGS  =    0.700; RWIGS  =    0.370    wigner-seitz radius (au A)                               
   ENMAX  =  700.000; ENMIN  =  350.000 eV                                                          
   RCLOC  =    0.701    cutoff for local pot                                                        
   LCOR   =        T    correct aug charges                                                         
   LPAW   =        T    paw PP                                                                      
   EAUG   = 1000.000                                                                                
   RMAX   =    0.819    core radius for proj-oper                                                   
   RAUG   =    1.000    factor for augmentation sphere                                              
   RDEP   =    0.817    radius for radial grids                                                     
   RDEPT  =    0.817    core radius for aug-charge                                                  
                                                                                                    
   Atomic configuration                                                                             
    2 entries                                                                                       
     n  l   j            E        occ.                                                              
     1  0  0.50        -6.4927   1.0000                                                             
     2  1  0.50        -3.4015   0.0000                                                             
   Description                                                                                      
     l       E           TYP  RCUT    TYP  RCUT                                                     
     0     -6.4927493     23  0.800                                                                 
     0      6.8029130     23  0.800                                                                 
     1     -6.8029130     23  0.800                                                                 
  local pseudopotential read in
  atomic valenz-charges read in
  non local Contribution for L=           0  read in
    real space projection operators read in
  non local Contribution for L=           0  read in
    real space projection operators read in
  non local Contribution for L=           1  read in
    real space projection operators read in
    PAW grid and wavefunctions read in

   number of l-projection  operators is LMAX  =           3
   number of lm-projection operators is LMMAX =           5

 POTCAR:    PAW_PBE C_h 06Feb2004                 
   VRHFIN =C: s2p2                                                                                  
   LEXCH  = PE                                                                                      
   EATOM  =   147.1560 eV,   10.8157 Ry                                                             
                                                                                                    
   TITEL  = PAW_PBE C_h 06Feb2004                                                                   
   LULTRA =        F    use ultrasoft PP ?                                                          
   IUNSCR =        1    unscreen: 0-lin 1-nonlin 2-no                                               
   RPACOR =    0.800    partial core radius                                                         
   POMASS =   12.011; ZVAL   =    4.000    mass and valenz                                          
   RCORE  =    1.100    outmost cutoff radius                                                       
   RWIGS  =    1.630; RWIGS  =    0.863    wigner-seitz radius (au A)                               
   ENMAX  =  700.000; ENMIN  =  500.000 eV                                                          
   ICORE  =        2    local potential                                                             
   LCOR   =        T    correct aug charges                                                         
   LPAW   =        T    paw PP                                                                      
   EAUG   =  946.768                                                                                
   DEXC   =    0.000                                                                                
   RMAX   =    1.128    core radius for proj-oper                                                   
   RAUG   =    1.300    factor for augmentation sphere                                              
   RDEP   =    1.162    radius for radial grids                                                     
   RDEPT  =    1.088    core radius for aug-charge                                                  
                                                                                                    
   Atomic configuration                                                                             
    4 entries                                                                                       
     n  l   j            E        occ.                                                              
     1  0  0.50      -273.3789   2.0000                                                             
     2  0  0.50       -13.7508   2.0000                                                             
     2  1  0.50        -5.2854   2.0000                                                             
     3  2  1.50        -5.4423   0.0000                                                             
   Description                                                                                      
     l       E           TYP  RCUT    TYP  RCUT                                                     
     0    -13.7508458     23  1.100                                                                 
     0     -8.2022199     23  1.100                                                                 
     1     -5.2854383     23  1.100                                                                 
     1      1.1560700     23  1.100                                                                 
     2     -5.4423304      7  1.100                                                                 
  local pseudopotential read in
  partial core-charges read in
  partial kinetic energy density read in
  atomic valenz-charges read in
  non local Contribution for L=           0  read in
    real space projection operators read in
  non local Contribution for L=           0  read in
    real space projection operators read in
  non local Contribution for L=           1  read in
    real space projection operators read in
  non local Contribution for L=           1  read in
    real space projection operators read in
    PAW grid and wavefunctions read in

   number of l-projection  operators is LMAX  =           4
   number of lm-projection operators is LMMAX =           8

 POTCAR:    PAW_PBE N_h 06Feb2004                 
   VRHFIN =N: s2p3                                                                                  
   LEXCH  = PE                                                                                      
   EATOM  =   264.5486 eV,   19.4438 Ry                                                             
                                                                                                    
   TITEL  = PAW_PBE N_h 06Feb2004                                                                   
   LULTRA =        F    use ultrasoft PP ?                                                          
   IUNSCR =        1    unscreen: 0-lin 1-nonlin 2-no                                               
   RPACOR =    0.800    partial core radius                                                         
   POMASS =   14.001; ZVAL   =    5.000    mass and valenz                                          
   RCORE  =    1.100    outmost cutoff radius                                                       
   RWIGS  =    1.480; RWIGS  =    0.783    wigner-seitz radius (au A)                               
   ENMAX  =  700.000; ENMIN  =  500.000 eV                                                          
   ICORE  =        2    local potential                                                             
   LCOR   =        T    correct aug charges                                                         
   LPAW   =        T    paw PP                                                                      
   EAUG   =  904.640                                                                                
   DEXC   =    0.000                                                                                
   RMAX   =    1.127    core radius for proj-oper                                                   
   RAUG   =    1.300    factor for augmentation sphere                                              
   RDEP   =    1.115    radius for radial grids                                                     
   RDEPT  =    1.106    core radius for aug-charge                                                  
                                                                                                    
   Atomic configuration                                                                             
    4 entries                                                                                       
     n  l   j            E        occ.                                                              
     1  0  0.50      -384.7179   2.0000                                                             
     2  0  0.50       -18.5828   2.0000                                                             
     2  1  0.50        -7.0898   3.0000                                                             
     3  2  1.50        -6.8029   0.0000                                                             
   Description                                                                                      
     l       E           TYP  RCUT    TYP  RCUT                                                     
     0    -18.5828117     23  1.100                                                                 
     0    -15.0750597     23  1.100                                                                 
     1     -7.0897851     23  1.100                                                                 
     1     -1.9663412     23  1.100                                                                 
     2     -6.8029130      7  1.100                                                                 
  local pseudopotential read in
  partial core-charges read in
  partial kinetic energy density read in
  kinetic energy density of atom read in
  atomic valenz-charges read in
  non local Contribution for L=           0  read in
    real space projection operators read in
  non local Contribution for L=           0  read in
    real space projection operators read in
  non local Contribution for L=           1  read in
    real space projection operators read in
  non local Contribution for L=           1  read in
    real space projection operators read in
    PAW grid and wavefunctions read in

   number of l-projection  operators is LMAX  =           4
   number of lm-projection operators is LMMAX =           8

 -----------------------------------------------------------------------------
|                                                                             |
|               ----> ADVICE to this user running VASP <----                  |
|                                                                             |
|     You have a (more or less) 'large supercell' and for larger cells it     |
|     might be more efficient to use real-space projection operators.         |
|     Therefore, try LREAL= Auto in the INCAR file.                           |
|     Mind: For very accurate calculation, you might also keep the            |
|     reciprocal projection scheme (i.e. LREAL=.FALSE.).                      |
|                                                                             |
 -----------------------------------------------------------------------------

 -----------------------------------------------------------------------------
|                                                                             |
|               ----> ADVICE to this user running VASP <----                  |
|                                                                             |
|     You enforced a specific xc type in the INCAR file but a different       |
|     type was found in the POTCAR file.                                      |
|     I HOPE YOU KNOW WHAT YOU ARE DOING!                                     |
|                                                                             |
 -----------------------------------------------------------------------------

  PAW_PBE H_h 06Feb2004                 :
 energy of atom  1       EATOM=  -12.4884
 kinetic energy error for atom=    0.0006 (will be added to EATOM!!)
  PAW_PBE C_h 06Feb2004                 :
 energy of atom  2       EATOM= -147.1560
 kinetic energy error for atom=    0.0031 (will be added to EATOM!!)
  PAW_PBE N_h 06Feb2004                 :
 energy of atom  3       EATOM= -264.5486
 kinetic energy error for atom=    0.0081 (will be added to EATOM!!)


 POSCAR:  H  C  N
  positions in cartesian coordinates
  No initial velocities read in
 exchange correlation table for  LEXCH =        9
   RHO(1)=    0.500       N(1)  =     2000
   RHO(2)=  100.500       N(2)  =     4000

 VTST: version 4.1, (05/19/21)

 CHAIN: initializing optimizer
 
 OPT: Using VASP Dynamics algorithm
 CHAIN: Read ICHAIN            0

 POSCAR:  H  C  N
  positions in cartesian coordinates
  No initial velocities read in



--------------------------------------------------------------------------------------------------------


 ion  position               nearest neighbor table
   1  0.092  0.334  0.517-  13 1.10
   2  0.517  0.092  0.334-  14 1.10
   3  0.275  0.850  0.850-  15 1.10
   4  0.517  0.334  0.092-  16 1.10
   5  0.334  0.092  0.517-  14 1.10
   6  0.334  0.517  0.092-  16 1.10
   7  0.908  0.666  0.666-  15 1.10
   8  0.666  0.908  0.666-  17 1.10
   9  0.850  0.275  0.850-  17 1.10
  10  0.092  0.517  0.334-  13 1.10
  11  0.850  0.850  0.275-  18 1.10
  12  0.666  0.666  0.908-  18 1.10
  13  0.092  0.335  0.335-  10 1.10   1 1.10  19 1.48  22 1.48
  14  0.335  0.092  0.335-   2 1.10   5 1.10  19 1.48  20 1.48
  15  0.092  0.849  0.849-   3 1.10   7 1.10  21 1.48  20 1.48
  16  0.335  0.335  0.092-   6 1.10   4 1.10  19 1.48  21 1.48
  17  0.849  0.092  0.849-   9 1.10   8 1.10  21 1.48  22 1.48
  18  0.849  0.849  0.092-  11 1.10  12 1.10  22 1.48  20 1.48
  19  0.341  0.341  0.341-  13 1.48  14 1.48  16 1.48
  20  0.092  0.842  0.092-  15 1.48  18 1.48  14 1.48
  21  0.092  0.092  0.842-  15 1.48  17 1.48  16 1.48
  22  0.842  0.092  0.092-  17 1.48  18 1.48  13 1.48

  LATTYP: Found a body centered cubic cell.
 ALAT       =     6.9526502000
  
  Lattice vectors:
  
 A1 = (  -3.4763251000,   3.4763251000,   3.4763251000)
 A2 = (   3.4763251000,  -3.4763251000,   3.4763251000)
 A3 = (   3.4763251000,   3.4763251000,  -3.4763251000)


Analysis of symmetry for initial positions (statically):
=====================================================================
 Subroutine PRICEL returns:
 Original cell was already a primitive cell.
 

 Routine SETGRP: Setting up the symmetry group for a 
 body centered cubic supercell.


 Subroutine GETGRP returns: Found  6 space group operations
 (whereof  6 operations were pure point group operations)
 out of a pool of 48 trial point group operations.


The static configuration has the point symmetry C_3v.


Analysis of symmetry for dynamics (positions and initial velocities):
=====================================================================
 Subroutine PRICEL returns:
 Original cell was already a primitive cell.
 

 Routine SETGRP: Setting up the symmetry group for a 
 body centered cubic supercell.


 Subroutine GETGRP returns: Found  6 space group operations
 (whereof  6 operations were pure point group operations)
 out of a pool of 48 trial point group operations.


The dynamic configuration has the point symmetry C_3v.


 Subroutine INISYM returns: Found  6 space group operations
 (whereof  6 operations are pure point group operations),
 and found     1 'primitive' translations


----------------------------------------------------------------------------------------

                                     Primitive cell                                     

  volume of cell :     168.0433

  direct lattice vectors                    reciprocal lattice vectors
    -3.476325100  3.476325100  3.476325100    -0.000000000  0.143830046  0.143830046
     3.476325100 -3.476325100  3.476325100     0.143830046 -0.000000000  0.143830046
     3.476325100  3.476325100 -3.476325100     0.143830046  0.143830046 -0.000000000

  length of vectors
     6.021171697  6.021171697  6.021171697     0.203406402  0.203406402  0.203406402

  position of ions in fractional coordinates (direct lattice)
     0.091781563  0.333502338  0.517058243
     0.517058243  0.091781563  0.333502338
     0.275337468  0.850053567  0.850053567
     0.517058243  0.333502338  0.091781563
     0.333502338  0.091781563  0.517058243
     0.333502338  0.517058243  0.091781563
     0.908218437  0.666497662  0.666497662
     0.666497662  0.908218437  0.666497662
     0.850053567  0.275337468  0.850053567
     0.091781563  0.517058243  0.333502338
     0.850053567  0.850053567  0.275337468
     0.666497662  0.666497662  0.908218437
     0.091781563  0.334825575  0.334825575
     0.334825575  0.091781563  0.334825575
     0.091781563  0.848744713  0.848744713
     0.334825575  0.334825575  0.091781563
     0.848744713  0.091781563  0.848744713
     0.848744713  0.848744713  0.091781563
     0.341326693  0.341326693  0.341326693
     0.091781563  0.842229212  0.091781563
     0.091781563  0.091781563  0.842229212
     0.842229212  0.091781563  0.091781563

  ion indices of the primitive-cell ions
   primitive index   ion index
                 1           1
                 2           2
                 3           3
                 4           4
                 5           5
                 6           6
                 7           7
                 8           8
                 9           9
                10          10
                11          11
                12          12
                13          13
                14          14
                15          15
                16          16
                17          17
                18          18
                19          19
                20          20
                21          21
                22          22

----------------------------------------------------------------------------------------



 KPOINTS: auto                                    

Automatic generation of k-mesh.
 Grid dimensions read from file:
 generate k-points for:    5    5    5

 Generating k-lattice:

  Cartesian coordinates                     Fractional coordinates (reciprocal lattice)
    -0.000000000  0.028766009  0.028766009     0.200000000 -0.000000000  0.000000000
     0.028766009 -0.000000000  0.028766009    -0.000000000  0.200000000  0.000000000
     0.028766009  0.028766009 -0.000000000     0.000000000 -0.000000000  0.200000000

  Length of vectors
     0.040681280  0.040681280  0.040681280

  Shift w.r.t. Gamma in fractional coordinates (k-lattice)
     0.000000000  0.000000000  0.000000000

 
 Subroutine IBZKPT returns following result:
 ===========================================
 
 Found     19 irreducible k-points:
 
 Following reciprocal coordinates:
            Coordinates               Weight
  0.000000  0.000000  0.000000      1.000000
  0.200000  0.000000  0.000000      6.000000
  0.200000  0.000000 -0.200000      6.000000
  0.400000  0.000000  0.000000      6.000000
  0.400000  0.000000 -0.400000      6.000000
  0.200000  0.200000  0.000000      6.000000
  0.400000  0.000000 -0.200000     12.000000
  0.400000 -0.200000 -0.200000      6.000000
  0.400000  0.200000  0.000000     12.000000
 -0.400000  0.000000 -0.400000      6.000000
 -0.400000 -0.400000 -0.200000      6.000000
  0.200000  0.200000  0.200000      2.000000
 -0.400000 -0.200000 -0.200000      6.000000
 -0.200000  0.200000  0.200000      6.000000
 -0.400000  0.400000  0.200000     12.000000
  0.200000 -0.200000  0.400000     12.000000
 -0.400000 -0.400000  0.200000      6.000000
  0.400000  0.400000  0.400000      2.000000
 -0.400000  0.400000  0.400000      6.000000
 
 Following cartesian coordinates:
            Coordinates               Weight
  0.000000  0.000000  0.000000      1.000000
  0.000000  0.028766  0.028766      6.000000
 -0.028766  0.000000  0.028766      6.000000
  0.000000  0.057532  0.057532      6.000000
 -0.057532  0.000000  0.057532      6.000000
  0.028766  0.028766  0.057532      6.000000
 -0.028766  0.028766  0.057532     12.000000
 -0.057532  0.028766  0.028766      6.000000
  0.028766  0.057532  0.086298     12.000000
 -0.057532 -0.115064 -0.057532      6.000000
 -0.086298 -0.086298 -0.115064      6.000000
  0.057532  0.057532  0.057532      2.000000
 -0.057532 -0.086298 -0.086298      6.000000
  0.057532  0.000000  0.000000      6.000000
  0.086298 -0.028766  0.000000     12.000000
  0.028766  0.086298  0.000000     12.000000
 -0.028766 -0.028766 -0.115064      6.000000
  0.115064  0.115064  0.115064      2.000000
  0.115064  0.000000  0.000000      6.000000
 


--------------------------------------------------------------------------------------------------------




 Dimension of arrays:
   k-points           NKPTS =     19   k-points in BZ     NKDIM =     19   number of bands    NBANDS=    128
   number of dos      NEDOS =    301   number of ions     NIONS =     22
   non local maximal  LDIM  =      4   non local SUM 2l+1 LMDIM =      8
   total plane-waves  NPLWV = 262144
   max r-space proj   IRMAX =      1   max aug-charges    IRDMAX=  11278
   dimension x,y,z NGX =    64 NGY =   64 NGZ =   64
   dimension x,y,z NGXF=   128 NGYF=  128 NGZF=  128
   support grid    NGXF=   128 NGYF=  128 NGZF=  128
   ions per type =              12   6   4
   NGX,Y,Z   is equivalent  to a cutoff of  17.67, 17.67, 17.67 a.u.
   NGXF,Y,Z  is equivalent  to a cutoff of  35.34, 35.34, 35.34 a.u.

 SYSTEM =  unknown system                          
 POSCAR =   H  C  N                                

 Startparameter for this run:
   NWRITE =      2    write-flag & timer
   PREC   = accura    normal or accurate (medium, high low for compatibility)
   ISTART =      0    job   : 0-new  1-cont  2-samecut
   ICHARG =      2    charge: 1-file 2-atom 10-const
   ISPIN  =      1    spin polarized calculation?
   LNONCOLLINEAR =      F non collinear calculations
   LSORBIT =      F    spin-orbit coupling
   INIWAV =      1    electr: 0-lowe 1-rand  2-diag
   LASPH  =      F    aspherical Exc in radial PAW
 Electronic Relaxation 1
   ENCUT  = 1000.0 eV  73.50 Ry    8.57 a.u.  15.53 15.53 15.53*2*pi/ulx,y,z
   ENINI  = 1000.0     initial cutoff
   ENAUG  = 1000.0 eV  augmentation charge cutoff
   NELM   =     60;   NELMIN=  2; NELMDL= -5     # of ELM steps 
   EDIFF  = 0.1E-06   stopping-criterion for ELM
   LREAL  =      F    real-space projection
   NLSPLINE    = F    spline interpolate recip. space projectors
   LCOMPAT=      F    compatible to vasp.4.4
   GGA_COMPAT  = T    GGA compatible to vasp.4.4-vasp.4.6
   LMAXPAW     = -100 max onsite density
   LMAXMIX     =    2 max onsite mixed and CHGCAR
   VOSKOWN=      0    Vosko Wilk Nusair interpolation
   ROPT   =    0.00000   0.00000   0.00000
 Ionic relaxation
   EDIFFG = 0.1E-05   stopping-criterion for IOM
   NSW    =      0    number of steps for IOM
   NBLOCK =      1;   KBLOCK =      1    inner block; outer block 
   IBRION =     -1    ionic relax: 0-MD 1-quasi-New 2-CG
   NFREE  =      0    steps in history (QN), initial steepest desc. (CG)
   ISIF   =      0    stress and relaxation
   IWAVPR =     10    prediction:  0-non 1-charg 2-wave 3-comb
   ISYM   =      2    0-nonsym 1-usesym 2-fastsym
   LCORR  =      T    Harris-Foulkes like correction to forces

   POTIM  = 0.5000    time-step for ionic-motion
   TEIN   =    0.0    initial temperature
   TEBEG  =    0.0;   TEEND  =   0.0 temperature during run
   SMASS  =  -3.00    Nose mass-parameter (am)
   estimated Nose-frequenzy (Omega)   =  0.10E-29 period in steps = 0.13E+47 mass=  -0.829E-27a.u.
   SCALEE = 1.0000    scale energy and forces
   NPACO  =    256;   APACO  = 10.0  distance and # of slots for P.C.
   PSTRESS=    0.0 pullay stress

  Mass of Ions in am
   POMASS =   1.00 12.01 14.00
  Ionic Valenz
   ZVAL   =   1.00  4.00  5.00
  Atomic Wigner-Seitz radii
   RWIGS  =  -1.00 -1.00 -1.00
  virtual crystal weights 
   VCA    =   1.00  1.00  1.00
   NELECT =      56.0000    total number of electrons
   NUPDOWN=      -1.0000    fix difference up-down

 DOS related values:
   EMIN   =  10.00;   EMAX   =-10.00  energy-range for DOS
   EFERMI =   0.00;   METHOD = LEGACY      
   ISMEAR =     0;   SIGMA  =   0.01  broadening in eV -4-tet -1-fermi 0-gaus

 Electronic relaxation 2 (details)
   IALGO  =     58    algorithm
   LDIAG  =      T    sub-space diagonalisation (order eigenvalues)
   LSUBROT=      F    optimize rotation matrix (better conditioning)
   TURBO    =      0    0=normal 1=particle mesh
   IRESTART =      0    0=no restart 2=restart with 2 vectors
   NREBOOT  =      0    no. of reboots
   NMIN     =      0    reboot dimension
   EREF     =   0.00    reference energy to select bands
   IMIX   =      4    mixing-type and parameters
     AMIX     =   0.40;   BMIX     =  1.00
     AMIX_MAG =   1.60;   BMIX_MAG =  1.00
     AMIN     =   0.10
     WC   =   100.;   INIMIX=   1;  MIXPRE=   1;  MAXMIX= -45

 Intra band minimization:
   WEIMIN = 0.0000     energy-eigenvalue tresh-hold
   EBREAK =  0.20E-09  absolut break condition
   DEPER  =   0.30     relativ break condition  

   TIME   =   0.40     timestep for ELM

  volume/ion in A,a.u.               =       7.64        51.55
  Fermi-wavevector in a.u.,A,eV,Ry     =   1.135003  2.144845 17.527467  1.288232
  Thomas-Fermi vector in A             =   2.271708

 Write flags
   LWAVE        =      F    write WAVECAR
   LDOWNSAMPLE  =      F    k-point downsampling of WAVECAR
   LCHARG       =      T    write CHGCAR
   LVTOT        =      F    write LOCPOT, total local potential
   LVHAR        =      F    write LOCPOT, Hartree potential only
   LELF         =      F    write electronic localiz. function (ELF)
   LORBIT       =      0    0 simple, 1 ext, 2 COOP (PROOUT), +10 PAW based schemes


 Dipole corrections
   LMONO  =      F    monopole corrections only (constant potential shift)
   LDIPOL =      F    correct potential (dipole corrections)
   IDIPOL =      0    1-x, 2-y, 3-z, 4-all directions 
   EPSILON=  1.0000000 bulk dielectric constant

 Exchange correlation treatment:
   GGA     =    RP    GGA type
   LEXCH   =     9    internal setting for exchange type
   LIBXC   =     F    Libxc                    
   VOSKOWN =     0    Vosko Wilk Nusair interpolation
   LHFCALC =     F    Hartree Fock is set to
   LHFONE  =     F    Hartree Fock one center treatment
   AEXX    =    0.0000 exact exchange contribution

 Linear response parameters
   LEPSILON=     F    determine dielectric tensor
   LRPA    =     F    only Hartree local field effects (RPA)
   LNABLA  =     F    use nabla operator in PAW spheres
   LVEL    =     F    velocity operator in full k-point grid
   CSHIFT  =0.1000    complex shift for real part using Kramers Kronig
   OMEGAMAX=  -1.0    maximum frequency
   DEG_THRESHOLD= 0.2000000E-02 threshold for treating states as degnerate
   RTIME   =   -0.100 relaxation time in fs
  (WPLASMAI=    0.000 imaginary part of plasma frequency in eV, 0.658/RTIME)
   DFIELD  = 0.0000000 0.0000000 0.0000000 field for delta impulse in time

  Optional k-point grid parameters
   LKPOINTS_OPT  =     F    use optional k-point grid
   KPOINTS_OPT_MODE=     1    mode for optional k-point grid

 Orbital magnetization related:
   ORBITALMAG=     F  switch on orbital magnetization
   LCHIMAG   =     F  perturbation theory with respect to B field
   DQ        =  0.001000  dq finite difference perturbation B field
   LLRAUG    =     F  two centre corrections for induced B field
   LBONE     =     F  B-component reconstruction in AE one-centre
   LVGVCALC  =     T  calculate vGv susceptibility
   LVGVAPPL  =     F  apply vGv susceptibility instead of pGv for G=0

 Random number generation:
   RANDOM_GENERATOR = DEFAULT
   PCG_SEED         = not used


--------------------------------------------------------------------------------------------------------


 Static calculation
 charge density and potential will be updated during run
 non-spin polarized calculation
 Conjugate gradient for all bands (Freysoldt, et al. PRB 79, 241103 (2009))
 preconditioned conjugated gradient                                        
 perform sub-space diagonalisation
    before iterative eigenvector-optimisation
 modified Broyden-mixing scheme, WC =      100.0
 initial mixing is a Kerker type mixing with AMIX =  0.4000 and BMIX =      1.0000
 Hartree-type preconditioning will be used
 using additional bands          100
 reciprocal scheme for non local part
 use partial core corrections
 no Harris-corrections to forces 
 use gradient corrections 
 use of overlap-Matrix (Vanderbilt PP)
 Gauss-broadening in eV      SIGMA  =   0.01


--------------------------------------------------------------------------------------------------------


  energy-cutoff  :     1000.00
  volume of cell :      168.04
      direct lattice vectors                 reciprocal lattice vectors
    -3.476325100  3.476325100  3.476325100    -0.000000000  0.143830046  0.143830046
     3.476325100 -3.476325100  3.476325100     0.143830046 -0.000000000  0.143830046
     3.476325100  3.476325100 -3.476325100     0.143830046  0.143830046 -0.000000000

  length of vectors
     6.021171697  6.021171697  6.021171697     0.203406402  0.203406402  0.203406402



 k-points in units of 2pi/SCALE and weight: auto                                    
   0.00000000  0.00000000  0.00000000       0.008
   0.00000000  0.02876601  0.02876601       0.048
  -0.02876601  0.00000000  0.02876601       0.048
   0.00000000  0.05753202  0.05753202       0.048
  -0.05753202  0.00000000  0.05753202       0.048
   0.02876601  0.02876601  0.05753202       0.048
  -0.02876601  0.02876601  0.05753202       0.096
  -0.05753202  0.02876601  0.02876601       0.048
   0.02876601  0.05753202  0.08629803       0.096
  -0.05753202 -0.11506404 -0.05753202       0.048
  -0.08629803 -0.08629803 -0.11506404       0.048
   0.05753202  0.05753202  0.05753202       0.016
  -0.05753202 -0.08629803 -0.08629803       0.048
   0.05753202  0.00000000  0.00000000       0.048
   0.08629803 -0.02876601  0.00000000       0.096
   0.02876601  0.08629803  0.00000000       0.096
  -0.02876601 -0.02876601 -0.11506404       0.048
   0.11506404  0.11506404  0.11506404       0.016
   0.11506404  0.00000000  0.00000000       0.048

 k-points in reciprocal lattice and weights: auto                                    
   0.00000000  0.00000000  0.00000000       0.008
   0.20000000  0.00000000  0.00000000       0.048
   0.20000000  0.00000000 -0.20000000       0.048
   0.40000000  0.00000000  0.00000000       0.048
   0.40000000  0.00000000 -0.40000000       0.048
   0.20000000  0.20000000  0.00000000       0.048
   0.40000000  0.00000000 -0.20000000       0.096
   0.40000000 -0.20000000 -0.20000000       0.048
   0.40000000  0.20000000  0.00000000       0.096
  -0.40000000  0.00000000 -0.40000000       0.048
  -0.40000000 -0.40000000 -0.20000000       0.048
   0.20000000  0.20000000  0.20000000       0.016
  -0.40000000 -0.20000000 -0.20000000       0.048
  -0.20000000  0.20000000  0.20000000       0.048
  -0.40000000  0.40000000  0.20000000       0.096
   0.20000000 -0.20000000  0.40000000       0.096
  -0.40000000 -0.40000000  0.20000000       0.048
   0.40000000  0.40000000  0.40000000       0.016
  -0.40000000  0.40000000  0.40000000       0.048

 position of ions in fractional coordinates (direct lattice) 
   0.09178156  0.33350234  0.51705824
   0.51705824  0.09178156  0.33350234
   0.27533747  0.85005357  0.85005357
   0.51705824  0.33350234  0.09178156
   0.33350234  0.09178156  0.51705824
   0.33350234  0.51705824  0.09178156
   0.90821844  0.66649766  0.66649766
   0.66649766  0.90821844  0.66649766
   0.85005357  0.27533747  0.85005357
   0.09178156  0.51705824  0.33350234
   0.85005357  0.85005357  0.27533747
   0.66649766  0.66649766  0.90821844
   0.09178156  0.33482557  0.33482557
   0.33482557  0.09178156  0.33482557
   0.09178156  0.84874471  0.84874471
   0.33482557  0.33482557  0.09178156
   0.84874471  0.09178156  0.84874471
   0.84874471  0.84874471  0.09178156
   0.34132669  0.34132669  0.34132669
   0.09178156  0.84222921  0.09178156
   0.09178156  0.09178156  0.84222921
   0.84222921  0.09178156  0.09178156

 position of ions in cartesian coordinates  (Angst):
   2.63776255  0.95716255 -0.31903745
  -0.31903745  2.63776255  0.95716255
   4.95296255  0.95716255  0.95716255
  -0.31903745  0.95716255  2.63776255
   0.95716255  2.63776255 -0.31903745
   0.95716255 -0.31903745  2.63776255
   1.47666255  3.15726255  3.15726255
   3.15726255  1.47666255  3.15726255
   0.95716255  4.95296255  0.95716255
   2.63776255 -0.31903745  0.95716255
   0.95716255  0.95716255  4.95296255
   3.15726255  3.15726255  1.47666255
   2.00886255  0.31906255  0.31906255
   0.31906255  2.00886255  0.31906255
   5.58196255  0.31906255  0.31906255
   0.31906255  0.31906255  2.00886255
   0.31906255  5.58196255  0.31906255
   0.31906255  0.31906255  5.58196255
   1.18656255  1.18656255  1.18656255
   2.92786255 -2.28973745  2.92786255
   2.92786255  2.92786255 -2.28973745
  -2.28973745  2.92786255  2.92786255



--------------------------------------------------------------------------------------------------------


 k-point   1 :   0.0000 0.0000 0.0000  plane waves:   12017
 k-point   2 :   0.2000 0.0000 0.0000  plane waves:   12071
 k-point   3 :   0.2000 0.0000-0.2000  plane waves:   12071
 k-point   4 :   0.4000 0.0000 0.0000  plane waves:   12080
 k-point   5 :   0.4000 0.0000-0.4000  plane waves:   12080
 k-point   6 :   0.2000 0.2000 0.0000  plane waves:   12053
 k-point   7 :   0.4000 0.0000-0.2000  plane waves:   12053
 k-point   8 :   0.4000-0.2000-0.2000  plane waves:   12053
 k-point   9 :   0.4000 0.2000 0.0000  plane waves:   12091
 k-point  10 :  -0.4000 0.0000-0.4000  plane waves:   12091
 k-point  11 :  -0.4000-0.4000-0.2000  plane waves:   12091
 k-point  12 :   0.2000 0.2000 0.2000  plane waves:   12085
 k-point  13 :  -0.4000-0.2000-0.2000  plane waves:   12085
 k-point  14 :  -0.2000 0.2000 0.2000  plane waves:   12102
 k-point  15 :  -0.4000 0.4000 0.2000  plane waves:   12062
 k-point  16 :   0.2000-0.2000 0.4000  plane waves:   12062
 k-point  17 :  -0.4000-0.4000 0.2000  plane waves:   12073
 k-point  18 :   0.4000 0.4000 0.4000  plane waves:   12073
 k-point  19 :  -0.4000 0.4000 0.4000  plane waves:   12014

 maximum and minimum number of plane-waves per node :      6070     5984

 maximum number of plane-waves:     12102
 maximum index in each direction: 
   IXMAX=   15   IYMAX=   15   IZMAX=   15
   IXMIN=  -15   IYMIN=  -15   IZMIN=  -15


 parallel 3D FFT for wavefunctions:
    minimum data exchange during FFTs selected (reduces bandwidth)
 parallel 3D FFT for charge:
    minimum data exchange during FFTs selected (reduces bandwidth)


 total amount of memory used by VASP MPI-rank0    71114. kBytes
=======================================================================

   base      :      30000. kBytes
   nonl-proj :      24576. kBytes
   fftplans  :       4451. kBytes
   grid      :       6336. kBytes
   one-center:         33. kBytes
   wavefun   :       5718. kBytes

     INWAV:  cpu time      0.0000: real time      0.0000
 Broyden mixing: mesh for mixing (old mesh)
   NGX = 31   NGY = 31   NGZ = 31
  (NGX  =128   NGY  =128   NGZ  =128)
  gives a total of  29791 points

 initial charge density was supplied:
 charge density of overlapping atoms calculated
 number of electron      56.0000000 magnetization 
 keeping initial charge density in first step


--------------------------------------------------------------------------------------------------------


 Maximum index for augmentation-charges          217 (set IRDMAX)


--------------------------------------------------------------------------------------------------------


 First call to EWALD:  gamma=   0.321
 Maximum number of real-space cells 3x 3x 3
 Maximum number of reciprocal cells 3x 3x 3

    FEWALD:  cpu time      0.0039: real time      0.0039


--------------------------------------- Ionic step        1  -------------------------------------------




--------------------------------------- Iteration      1(   1)  ---------------------------------------


    POTLOK:  cpu time      0.0466: real time      0.0474
    SETDIJ:  cpu time      0.0098: real time      0.0104
    TRIAL :  cpu time     10.6379: real time     10.6433
    CORREC:  cpu time      0.0014: real time      0.0016
    --------------------------------------------
      LOOP:  cpu time     10.7052: real time     10.7121

 eigenvalue-minimisations  :  4864
 total energy-change (2. order) : 0.6615029E+02  (-0.5686955E+04)
 number of electron      56.0000000 magnetization 
 augmentation part       56.0000000 magnetization 

 Free energy of the ion-electron system (eV)
  ---------------------------------------------------
  alpha Z        PSCENC =        56.89320909
  Ewald energy   TEWEN  =      -822.09389158
  -Hartree energ DENC   =     -1122.58246755
  -exchange      EXHF   =         0.00000000
  -V(xc)+E(xc)   XCENC  =       140.45514775
  PAW double counting   =      1526.93554600    -1489.10106438
  entropy T*S    EENTRO =        -0.00016960
  eigenvalues    EBANDS =      -316.34377311
  atomic energy  EATOM  =      2091.98775745
  ---------------------------------------------------
  free energy    TOTEN  =        66.15029406 eV

  energy without entropy =       66.15046366  energy(sigma->0) =       66.15037886


--------------------------------------------------------------------------------------------------------




--------------------------------------- Iteration      1(   2)  ---------------------------------------


    TRIAL :  cpu time     29.0519: real time     29.0706
    CORREC:  cpu time      0.0003: real time      0.0003
    --------------------------------------------
      LOOP:  cpu time     29.0651: real time     29.0985

 eigenvalue-minimisations  :  7296
 total energy-change (2. order) :-0.1988311E+03  (-0.1987291E+03)
 number of electron      56.0000000 magnetization 
 augmentation part       56.0000000 magnetization 

 Free energy of the ion-electron system (eV)
  ---------------------------------------------------
  alpha Z        PSCENC =        56.89320909
  Ewald energy   TEWEN  =      -822.09389158
  -Hartree energ DENC   =     -1122.58246755
  -exchange      EXHF   =         0.00000000
  -V(xc)+E(xc)   XCENC  =       140.45514775
  PAW double counting   =      1526.93554600    -1489.10106438
  entropy T*S    EENTRO =        -0.00000000
  eigenvalues    EBANDS =      -515.17509119
  atomic energy  EATOM  =      2091.98775745
  ---------------------------------------------------
  free energy    TOTEN  =      -132.68085441 eV

  energy without entropy =     -132.68085441  energy(sigma->0) =     -132.68085441


--------------------------------------------------------------------------------------------------------




--------------------------------------- Iteration      1(   3)  ---------------------------------------


    TRIAL :  cpu time     11.3800: real time     11.3856
    CORREC:  cpu time      0.0003: real time      0.0003
    --------------------------------------------
      LOOP:  cpu time     11.3955: real time     11.4156

 eigenvalue-minimisations  :  4864
 total energy-change (2. order) :-0.2139527E+01  (-0.2139527E+01)
 number of electron      56.0000000 magnetization 
 augmentation part       56.0000000 magnetization 

 Free energy of the ion-electron system (eV)
  ---------------------------------------------------
  alpha Z        PSCENC =        56.89320909
  Ewald energy   TEWEN  =      -822.09389158
  -Hartree energ DENC   =     -1122.58246755
  -exchange      EXHF   =         0.00000000
  -V(xc)+E(xc)   XCENC  =       140.45514775
  PAW double counting   =      1526.93554600    -1489.10106438
  entropy T*S    EENTRO =        -0.00000000
  eigenvalues    EBANDS =      -517.31461794
  atomic energy  EATOM  =      2091.98775745
  ---------------------------------------------------
  free energy    TOTEN  =      -134.82038116 eV

  energy without entropy =     -134.82038116  energy(sigma->0) =     -134.82038116


--------------------------------------------------------------------------------------------------------




--------------------------------------- Iteration      1(   4)  ---------------------------------------


    TRIAL :  cpu time     61.3382: real time     61.3677
    CORREC:  cpu time      0.0002: real time      0.0002
    --------------------------------------------
      LOOP:  cpu time     61.3673: real time     61.3971

 eigenvalue-minimisations  :  9728
 total energy-change (2. order) :-0.3739146E-02  (-0.3739146E-02)
 number of electron      56.0000000 magnetization 
 augmentation part       56.0000000 magnetization 

 Free energy of the ion-electron system (eV)
  ---------------------------------------------------
  alpha Z        PSCENC =        56.89320909
  Ewald energy   TEWEN  =      -822.09389158
  -Hartree energ DENC   =     -1122.58246755
  -exchange      EXHF   =         0.00000000
  -V(xc)+E(xc)   XCENC  =       140.45514775
  PAW double counting   =      1526.93554600    -1489.10106438
  entropy T*S    EENTRO =        -0.00000000
  eigenvalues    EBANDS =      -517.31835709
  atomic energy  EATOM  =      2091.98775745
  ---------------------------------------------------
  free energy    TOTEN  =      -134.82412031 eV

  energy without entropy =     -134.82412031  energy(sigma->0) =     -134.82412031


--------------------------------------------------------------------------------------------------------




--------------------------------------- Iteration      1(   5)  ---------------------------------------


    TRIAL :  cpu time     11.2282: real time     11.2341
    CORREC:  cpu time      0.0002: real time      0.0002
    CHARGE:  cpu time      0.1062: real time      0.1072
    --------------------------------------------
      LOOP:  cpu time     11.3491: real time     11.3707

 eigenvalue-minimisations  :  4864
 total energy-change (2. order) :-0.7749804E-08  (-0.7751628E-08)
 number of electron      56.0000000 magnetization 
 augmentation part       -0.0765504 magnetization 

 Free energy of the ion-electron system (eV)
  ---------------------------------------------------
  alpha Z        PSCENC =        56.89320909
  Ewald energy   TEWEN  =      -822.09389158
  -Hartree energ DENC   =     -1122.58246755
  -exchange      EXHF   =         0.00000000
  -V(xc)+E(xc)   XCENC  =       140.45514775
  PAW double counting   =      1526.93554600    -1489.10106438
  entropy T*S    EENTRO =        -0.00000000
  eigenvalues    EBANDS =      -517.31835709
  atomic energy  EATOM  =      2091.98775745
  ---------------------------------------------------
  free energy    TOTEN  =      -134.82412032 eV

  energy without entropy =     -134.82412032  energy(sigma->0) =     -134.82412032


--------------------------------------------------------------------------------------------------------




--------------------------------------- Iteration      1(   6)  ---------------------------------------


    POTLOK:  cpu time      0.0188: real time      0.0188
    SETDIJ:  cpu time      0.0021: real time      0.0021
    TRIAL :  cpu time      1.4125: real time      1.4149
    CORREC:  cpu time      0.7211: real time      0.7221
    CHARGE:  cpu time      0.0753: real time      0.0753
    --------------------------------------------
      LOOP:  cpu time      2.2576: real time      2.2624

 eigenvalue-minimisations  :     0
 total energy-change (2. order) : 0.1391766E+02  (-0.5714930E+01)
 number of electron      56.0000000 magnetization 
 augmentation part       -0.1031789 magnetization 

 Free energy of the ion-electron system (eV)
  ---------------------------------------------------
  alpha Z        PSCENC =        56.89320909
  Ewald energy   TEWEN  =      -822.09389158
  -Hartree energ DENC   =     -1398.40537362
  -exchange      EXHF   =         0.00000000
  -V(xc)+E(xc)   XCENC  =       155.63416626
  PAW double counting   =     18299.28917316   -18262.67026109
  entropy T*S    EENTRO =        -0.00000000
  eigenvalues    EBANDS =      -241.54123818
  atomic energy  EATOM  =      2091.98775745
  ---------------------------------------------------
  free energy    TOTEN  =      -120.90645851 eV

  energy without entropy =     -120.90645851  energy(sigma->0) =     -120.90645851


--------------------------------------------------------------------------------------------------------




--------------------------------------- Iteration      1(   7)  ---------------------------------------


    POTLOK:  cpu time      0.0170: real time      0.0170
    SETDIJ:  cpu time      0.0021: real time      0.0021
    TRIAL :  cpu time      1.2915: real time      1.2919
    CORREC:  cpu time      0.6970: real time      0.6975
    CHARGE:  cpu time      0.0742: real time      0.0742
    --------------------------------------------
      LOOP:  cpu time      2.1097: real time      2.1112

 eigenvalue-minimisations  :     0
 total energy-change (2. order) :-0.5561052E+01  (-0.5144835E+00)
 number of electron      56.0000000 magnetization 
 augmentation part       -0.1023733 magnetization 

 Free energy of the ion-electron system (eV)
  ---------------------------------------------------
  alpha Z        PSCENC =        56.89320909
  Ewald energy   TEWEN  =      -822.09389158
  -Hartree energ DENC   =     -1269.67756461
  -exchange      EXHF   =         0.00000000
  -V(xc)+E(xc)   XCENC  =       150.56061910
  PAW double counting   =     27729.87881761   -27692.57398670
  entropy T*S    EENTRO =        -0.00000000
  eigenvalues    EBANDS =      -371.44247043
  atomic energy  EATOM  =      2091.98775745
  ---------------------------------------------------
  free energy    TOTEN  =      -126.46751007 eV

  energy without entropy =     -126.46751007  energy(sigma->0) =     -126.46751007


--------------------------------------------------------------------------------------------------------




--------------------------------------- Iteration      1(   8)  ---------------------------------------


    POTLOK:  cpu time      0.0184: real time      0.0184
    SETDIJ:  cpu time      0.0020: real time      0.0020
    TRIAL :  cpu time      1.2764: real time      1.2767
    CORREC:  cpu time      0.7130: real time      0.7134
    CHARGE:  cpu time      0.0748: real time      0.0748
    --------------------------------------------
      LOOP:  cpu time      2.0986: real time      2.1154

 eigenvalue-minimisations  :     0
 total energy-change (2. order) :-0.5168726E+00  (-0.5656622E-01)
 number of electron      56.0000000 magnetization 
 augmentation part       -0.1023432 magnetization 

 Free energy of the ion-electron system (eV)
  ---------------------------------------------------
  alpha Z        PSCENC =        56.89320909
  Ewald energy   TEWEN  =      -822.09389158
  -Hartree energ DENC   =     -1267.31653376
  -exchange      EXHF   =         0.00000000
  -V(xc)+E(xc)   XCENC  =       150.14615488
  PAW double counting   =     23062.49331079   -23025.24784526
  entropy T*S    EENTRO =        -0.00000000
  eigenvalues    EBANDS =      -373.84654431
  atomic energy  EATOM  =      2091.98775745
  ---------------------------------------------------
  free energy    TOTEN  =      -126.98438269 eV

  energy without entropy =     -126.98438269  energy(sigma->0) =     -126.98438269


--------------------------------------------------------------------------------------------------------




--------------------------------------- Iteration      1(   9)  ---------------------------------------


    POTLOK:  cpu time      0.0168: real time      0.0168
    SETDIJ:  cpu time      0.0020: real time      0.0020
    TRIAL :  cpu time      1.2671: real time      1.2676
    CORREC:  cpu time      0.7167: real time      0.7171
    CHARGE:  cpu time      0.0745: real time      0.0745
    --------------------------------------------
      LOOP:  cpu time      2.0945: real time      2.1070

 eigenvalue-minimisations  :     0
 total energy-change (2. order) :-0.5666779E-01  (-0.7829956E-02)
 number of electron      56.0000000 magnetization 
 augmentation part       -0.1036787 magnetization 

 Free energy of the ion-electron system (eV)
  ---------------------------------------------------
  alpha Z        PSCENC =        56.89320909
  Ewald energy   TEWEN  =      -822.09389158
  -Hartree energ DENC   =     -1268.74472385
  -exchange      EXHF   =         0.00000000
  -V(xc)+E(xc)   XCENC  =       150.05924012
  PAW double counting   =     22225.33321434   -22188.10753903
  entropy T*S    EENTRO =        -0.00000000
  eigenvalues    EBANDS =      -372.36831703
  atomic energy  EATOM  =      2091.98775745
  ---------------------------------------------------
  free energy    TOTEN  =      -127.04105049 eV

  energy without entropy =     -127.04105049  energy(sigma->0) =     -127.04105049


--------------------------------------------------------------------------------------------------------




--------------------------------------- Iteration      1(  10)  ---------------------------------------


    POTLOK:  cpu time      0.0169: real time      0.0169
    SETDIJ:  cpu time      0.0020: real time      0.0020
    TRIAL :  cpu time      1.2661: real time      1.2670
    CORREC:  cpu time      0.6980: real time      0.6985
    CHARGE:  cpu time      0.0763: real time      0.0763
    --------------------------------------------
      LOOP:  cpu time      2.0889: real time      2.0905

 eigenvalue-minimisations  :     0
 total energy-change (2. order) :-0.7835266E-02  (-0.8091674E-03)
 number of electron      56.0000000 magnetization 
 augmentation part       -0.1033553 magnetization 

 Free energy of the ion-electron system (eV)
  ---------------------------------------------------
  alpha Z        PSCENC =        56.89320909
  Ewald energy   TEWEN  =      -822.09389158
  -Hartree energ DENC   =     -1267.67424036
  -exchange      EXHF   =         0.00000000
  -V(xc)+E(xc)   XCENC  =       149.99137994
  PAW double counting   =     22549.93345146   -22512.69682366
  entropy T*S    EENTRO =        -0.00000000
  eigenvalues    EBANDS =      -373.38972808
  atomic energy  EATOM  =      2091.98775745
  ---------------------------------------------------
  free energy    TOTEN  =      -127.04888575 eV

  energy without entropy =     -127.04888575  energy(sigma->0) =     -127.04888575


--------------------------------------------------------------------------------------------------------




--------------------------------------- Iteration      1(  11)  ---------------------------------------


    POTLOK:  cpu time      0.0169: real time      0.0169
    SETDIJ:  cpu time      0.0020: real time      0.0020
    TRIAL :  cpu time      1.2648: real time      1.2657
    CORREC:  cpu time      0.6932: real time      0.6936
    CHARGE:  cpu time      0.0742: real time      0.0742
    --------------------------------------------
      LOOP:  cpu time      2.0637: real time      2.0807

 eigenvalue-minimisations  :     0
 total energy-change (2. order) :-0.8135229E-03  (-0.9178160E-04)
 number of electron      56.0000000 magnetization 
 augmentation part       -0.1032341 magnetization 

 Free energy of the ion-electron system (eV)
  ---------------------------------------------------
  alpha Z        PSCENC =        56.89320909
  Ewald energy   TEWEN  =      -822.09389158
  -Hartree energ DENC   =     -1267.79978306
  -exchange      EXHF   =         0.00000000
  -V(xc)+E(xc)   XCENC  =       149.98327385
  PAW double counting   =     22582.78181148   -22545.54504765
  entropy T*S    EENTRO =        -0.00000000
  eigenvalues    EBANDS =      -373.25702885
  atomic energy  EATOM  =      2091.98775745
  ---------------------------------------------------
  free energy    TOTEN  =      -127.04969927 eV

  energy without entropy =     -127.04969927  energy(sigma->0) =     -127.04969927


--------------------------------------------------------------------------------------------------------




--------------------------------------- Iteration      1(  12)  ---------------------------------------


    POTLOK:  cpu time      0.0167: real time      0.0167
    SETDIJ:  cpu time      0.0021: real time      0.0021
    TRIAL :  cpu time      1.2661: real time      1.2668
    CORREC:  cpu time      0.6927: real time      0.6932
    CHARGE:  cpu time      0.0742: real time      0.0743
    --------------------------------------------
      LOOP:  cpu time      2.0646: real time      2.0827

 eigenvalue-minimisations  :     0
 total energy-change (2. order) :-0.9322582E-04  (-0.1401702E-04)
 number of electron      56.0000000 magnetization 
 augmentation part       -0.1032650 magnetization 

 Free energy of the ion-electron system (eV)
  ---------------------------------------------------
  alpha Z        PSCENC =        56.89320909
  Ewald energy   TEWEN  =      -822.09389158
  -Hartree energ DENC   =     -1267.72247549
  -exchange      EXHF   =         0.00000000
  -V(xc)+E(xc)   XCENC  =       149.97781347
  PAW double counting   =     22567.39920003   -22530.16263383
  entropy T*S    EENTRO =        -0.00000000
  eigenvalues    EBANDS =      -373.32877163
  atomic energy  EATOM  =      2091.98775745
  ---------------------------------------------------
  free energy    TOTEN  =      -127.04979250 eV

  energy without entropy =     -127.04979250  energy(sigma->0) =     -127.04979250


--------------------------------------------------------------------------------------------------------




--------------------------------------- Iteration      1(  13)  ---------------------------------------


    POTLOK:  cpu time      0.0168: real time      0.0168
    SETDIJ:  cpu time      0.0020: real time      0.0020
    TRIAL :  cpu time      1.2659: real time      1.2667
    CORREC:  cpu time      0.6937: real time      0.6942
    CHARGE:  cpu time      0.0750: real time      0.0750
    --------------------------------------------
      LOOP:  cpu time      2.0656: real time      2.0837

 eigenvalue-minimisations  :     0
 total energy-change (2. order) :-0.1365235E-04  (-0.1756859E-05)
 number of electron      56.0000000 magnetization 
 augmentation part       -0.1032744 magnetization 

 Free energy of the ion-electron system (eV)
  ---------------------------------------------------
  alpha Z        PSCENC =        56.89320909
  Ewald energy   TEWEN  =      -822.09389158
  -Hartree energ DENC   =     -1267.70159562
  -exchange      EXHF   =         0.00000000
  -V(xc)+E(xc)   XCENC  =       149.97746939
  PAW double counting   =     22567.92786370   -22530.69126767
  entropy T*S    EENTRO =        -0.00000000
  eigenvalues    EBANDS =      -373.34935092
  atomic energy  EATOM  =      2091.98775745
  ---------------------------------------------------
  free energy    TOTEN  =      -127.04980615 eV

  energy without entropy =     -127.04980615  energy(sigma->0) =     -127.04980615


--------------------------------------------------------------------------------------------------------




--------------------------------------- Iteration      1(  14)  ---------------------------------------


    POTLOK:  cpu time      0.0168: real time      0.0168
    SETDIJ:  cpu time      0.0020: real time      0.0020
    TRIAL :  cpu time      1.2676: real time      1.2684
    CORREC:  cpu time      0.6924: real time      0.6929
    CHARGE:  cpu time      0.0740: real time      0.0740
    --------------------------------------------
      LOOP:  cpu time      2.0665: real time      2.0831

 eigenvalue-minimisations  :     0
 total energy-change (2. order) :-0.1671262E-05  (-0.1031884E-06)
 number of electron      56.0000000 magnetization 
 augmentation part       -0.1032719 magnetization 

 Free energy of the ion-electron system (eV)
  ---------------------------------------------------
  alpha Z        PSCENC =        56.89320909
  Ewald energy   TEWEN  =      -822.09389158
  -Hartree energ DENC   =     -1267.71207141
  -exchange      EXHF   =         0.00000000
  -V(xc)+E(xc)   XCENC  =       149.97767401
  PAW double counting   =     22570.83925172   -22533.60261929
  entropy T*S    EENTRO =        -0.00000000
  eigenvalues    EBANDS =      -373.33911780
  atomic energy  EATOM  =      2091.98775745
  ---------------------------------------------------
  free energy    TOTEN  =      -127.04980782 eV

  energy without entropy =     -127.04980782  energy(sigma->0) =     -127.04980782


--------------------------------------------------------------------------------------------------------




--------------------------------------- Iteration      1(  15)  ---------------------------------------


    POTLOK:  cpu time      0.0166: real time      0.0166
    SETDIJ:  cpu time      0.0020: real time      0.0020
    TRIAL :  cpu time      1.2667: real time      1.2676
    CORREC:  cpu time      0.6931: real time      0.6931
    CHARGE:  cpu time      0.0753: real time      0.0753
    --------------------------------------------
      LOOP:  cpu time      2.0834: real time      2.0848

 eigenvalue-minimisations  :     0
 total energy-change (2. order) :-0.1052358E-06  (-0.2320381E-07)
 number of electron      56.0000000 magnetization 
 augmentation part       -0.1032703 magnetization 

 Free energy of the ion-electron system (eV)
  ---------------------------------------------------
  alpha Z        PSCENC =        56.89320909
  Ewald energy   TEWEN  =      -822.09389158
  -Hartree energ DENC   =     -1267.71020686
  -exchange      EXHF   =         0.00000000
  -V(xc)+E(xc)   XCENC  =       149.97762048
  PAW double counting   =     22570.36520902   -22533.12857162
  entropy T*S    EENTRO =        -0.00000000
  eigenvalues    EBANDS =      -373.34093390
  atomic energy  EATOM  =      2091.98775745
  ---------------------------------------------------
  free energy    TOTEN  =      -127.04980793 eV

  energy without entropy =     -127.04980793  energy(sigma->0) =     -127.04980793


--------------------------------------------------------------------------------------------------------




--------------------------------------- Iteration      1(  16)  ---------------------------------------


    POTLOK:  cpu time      0.0167: real time      0.0167
    SETDIJ:  cpu time      0.0020: real time      0.0020
    TRIAL :  cpu time      1.2635: real time      1.2646
    CORREC:  cpu time      0.6992: real time      0.6993
    EDDIAG:  cpu time      0.6752: real time      0.6761
    CHARGE:  cpu time      0.0723: real time      0.0723
    --------------------------------------------
      LOOP:  cpu time      2.7412: real time      2.7615

 eigenvalue-minimisations  :     0
 total energy-change (2. order) :-0.1573426E-07  (-0.6854394E-08)
 number of electron      56.0000000 magnetization 
 augmentation part       -0.1032695 magnetization 

 Free energy of the ion-electron system (eV)
  ---------------------------------------------------
  alpha Z        PSCENC =        56.89320909
  Ewald energy   TEWEN  =      -822.09389158
  -Hartree energ DENC   =     -1267.70968014
  -exchange      EXHF   =         0.00000000
  -V(xc)+E(xc)   XCENC  =       149.97761334
  PAW double counting   =     22570.03429980   -22532.79766324
  entropy T*S    EENTRO =        -0.00000000
  eigenvalues    EBANDS =      -373.34145266
  atomic energy  EATOM  =      2091.98775745
  ---------------------------------------------------
  free energy    TOTEN  =      -127.04980794 eV

  energy without entropy =     -127.04980794  energy(sigma->0) =     -127.04980794


--------------------------------------------------------------------------------------------------------


  average scaling for gradient   1.2972


 average (electrostatic) potential at core
  the test charge radii are     0.4325  0.5770  0.5902
  (the norm of the test charge is              1.0000)
       1 -39.0840       2 -39.0840       3 -39.0835       4 -39.0840       5 -39.0840
       6 -39.0840       7 -39.0834       8 -39.0834       9 -39.0835      10 -39.0840
      11 -39.0835      12 -39.0834      13 -81.3028      14 -81.3028      15 -81.3029
      16 -81.3028      17 -81.3029      18 -81.3029      19 -97.5136      20 -97.5137
      21 -97.5137      22 -97.5137



 E-fermi :   1.3343     XC(G=0):  -8.2447     alpha+bet : -7.9003

 Fermi energy:         1.3342744903

 k-point     1 :       0.0000    0.0000    0.0000
  band No.  band energies     occupation 
      1     -19.3607      2.00000
      2     -16.2382      2.00000
      3     -16.2382      2.00000
      4     -16.2381      2.00000
      5     -11.4102      2.00000
      6     -11.4102      2.00000
      7     -10.0287      2.00000
      8     -10.0287      2.00000
      9     -10.0286      2.00000
     10      -8.3308      2.00000
     11      -5.7584      2.00000
     12      -5.7582      2.00000
     13      -5.7582      2.00000
     14      -5.6981      2.00000
     15      -5.6981      2.00000
     16      -5.6980      2.00000
     17      -3.3112      2.00000
     18      -3.3112      2.00000
     19      -2.7764      2.00000
     20      -2.7764      2.00000
     21      -2.7760      2.00000
     22      -2.5845      2.00000
     23      -2.5840      2.00000
     24      -2.5840      2.00000
     25      -2.4083      2.00000
     26       0.6449      2.00000
     27       0.6449      2.00000
     28       0.6452      2.00000
     29       6.0951      0.00000
     30       7.8260      0.00000
     31       7.8260      0.00000
     32       7.8263      0.00000
     33       8.6436      0.00000
     34       9.1381      0.00000
     35       9.1385      0.00000
     36       9.1385      0.00000
     37      10.1909      0.00000
     38      10.1909      0.00000
     39      10.5089      0.00000
     40      10.5089      0.00000
     41      10.5089      0.00000
     42      10.7343      0.00000
     43      10.7343      0.00000
     44      11.0920      0.00000
     45      11.0922      0.00000
     46      11.0922      0.00000
     47      13.1432      0.00000
     48      13.1437      0.00000
     49      13.1437      0.00000
     50      13.1515      0.00000
     51      13.1515      0.00000
     52      13.1518      0.00000
     53      13.4596      0.00000
     54      13.4596      0.00000
     55      16.3676      0.00000
     56      16.3677      0.00000
     57      16.3677      0.00000
     58      16.7035      0.00000
     59      16.7035      0.00000
     60      16.7039      0.00000
     61      17.1456      0.00000
     62      17.5979      0.00000
     63      17.5979      0.00000
     64      18.2641      0.00000
     65      18.2641      0.00000
     66      18.2642      0.00000
     67      18.9736      0.00000
     68      20.1356      0.00000
     69      20.1356      0.00000
     70      20.1357      0.00000
     71      20.2394      0.00000
     72      20.2394      0.00000
     73      20.2395      0.00000
     74      20.5230      0.00000
     75      22.6441      0.00000
     76      22.6441      0.00000
     77      23.7848      0.00000
     78      23.7848      0.00000
     79      23.7848      0.00000
     80      24.7438      0.00000
     81      24.7438      0.00000
     82      24.7440      0.00000
     83      25.1639      0.00000
     84      25.8298      0.00000
     85      26.2964      0.00000
     86      26.2966      0.00000
     87      26.2966      0.00000
     88      26.6048      0.00000
     89      26.6048      0.00000
     90      27.0909      0.00000
     91      27.0910      0.00000
     92      27.0910      0.00000
     93      27.5447      0.00000
     94      28.2732      0.00000
     95      28.2733      0.00000
     96      28.2733      0.00000
     97      28.4643      0.00000
     98      28.4643      0.00000
     99      28.4643      0.00000
    100      29.4047      0.00000
    101      29.4047      0.00000
    102      29.4047      0.00000
    103      29.9204      0.00000
    104      29.9204      0.00000
    105      29.9206      0.00000
    106      31.3329      0.00000
    107      31.3329      0.00000
    108      31.9776      0.00000
    109      31.9777      0.00000
    110      31.9777      0.00000
    111      32.5654      0.00000
    112      32.5654      0.00000
    113      33.6080      0.00000
    114      34.4457      0.00000
    115      34.4458      0.00000
    116      34.4459      0.00000
    117      35.9968      0.00000
    118      35.9969      0.00000
    119      35.9969      0.00000
    120      36.1927      0.00000
    121      36.1940      0.00000
    122      36.1988      0.00000
    123      37.6315      0.00000
    124      37.6324      0.00000
    125      37.6342      0.00000
    126      38.0826      0.00000
    127      38.1242      0.00000
    128      38.3082      0.00000

 k-point     2 :       0.2000    0.0000    0.0000
  band No.  band energies     occupation 
      1     -19.3493      2.00000
      2     -16.2652      2.00000
      3     -16.2464      2.00000
      4     -16.2413      2.00000
      5     -11.4197      2.00000
      6     -11.3761      2.00000
      7     -10.0620      2.00000
      8     -10.0456      2.00000
      9     -10.0080      2.00000
     10      -8.1287      2.00000
     11      -5.9093      2.00000
     12      -5.8173      2.00000
     13      -5.7616      2.00000
     14      -5.7151      2.00000
     15      -5.6486      2.00000
     16      -5.5996      2.00000
     17      -3.2712      2.00000
     18      -3.1220      2.00000
     19      -3.1036      2.00000
     20      -2.9395      2.00000
     21      -2.7929      2.00000
     22      -2.6189      2.00000
     23      -2.6063      2.00000
     24      -2.5891      2.00000
     25      -2.4164      2.00000
     26       0.6300      2.00000
     27       0.7516      2.00000
     28       0.8624      2.00000
     29       6.3842      0.00000
     30       7.2488      0.00000
     31       7.3412      0.00000
     32       7.9704      0.00000
     33       8.5220      0.00000
     34       9.2627      0.00000
     35       9.3122      0.00000
     36       9.7258      0.00000
     37       9.7571      0.00000
     38       9.9655      0.00000
     39      10.4104      0.00000
     40      10.4280      0.00000
     41      10.5544      0.00000
     42      10.6154      0.00000
     43      10.8639      0.00000
     44      11.1386      0.00000
     45      11.5933      0.00000
     46      12.0693      0.00000
     47      12.7991      0.00000
     48      12.8825      0.00000
     49      13.0624      0.00000
     50      13.1201      0.00000
     51      13.1796      0.00000
     52      13.2517      0.00000
     53      13.6555      0.00000
     54      13.9070      0.00000
     55      15.7499      0.00000
     56      15.7732      0.00000
     57      16.1807      0.00000
     58      16.2247      0.00000
     59      16.3265      0.00000
     60      16.4816      0.00000
     61      16.8657      0.00000
     62      17.4496      0.00000
     63      17.7474      0.00000
     64      17.9882      0.00000
     65      18.8594      0.00000
     66      18.9537      0.00000
     67      19.7715      0.00000
     68      19.8158      0.00000
     69      20.2547      0.00000
     70      20.5361      0.00000
     71      20.5557      0.00000
     72      20.8668      0.00000
     73      21.3202      0.00000
     74      21.4528      0.00000
     75      22.3157      0.00000
     76      22.3370      0.00000
     77      22.5883      0.00000
     78      23.4264      0.00000
     79      23.9159      0.00000
     80      23.9342      0.00000
     81      24.3862      0.00000
     82      24.4352      0.00000
     83      24.5423      0.00000
     84      24.9748      0.00000
     85      25.4484      0.00000
     86      25.5909      0.00000
     87      26.0268      0.00000
     88      26.0762      0.00000
     89      26.4412      0.00000
     90      26.5936      0.00000
     91      26.8157      0.00000
     92      27.4358      0.00000
     93      27.7422      0.00000
     94      27.7767      0.00000
     95      28.4091      0.00000
     96      28.4268      0.00000
     97      28.9455      0.00000
     98      29.3691      0.00000
     99      29.3925      0.00000
    100      29.5186      0.00000
    101      30.0317      0.00000
    102      30.0337      0.00000
    103      30.2886      0.00000
    104      30.8302      0.00000
    105      31.0610      0.00000
    106      31.8175      0.00000
    107      32.2528      0.00000
    108      32.2546      0.00000
    109      32.5195      0.00000
    110      32.6002      0.00000
    111      32.9574      0.00000
    112      33.1245      0.00000
    113      33.1486      0.00000
    114      33.8852      0.00000
    115      34.3018      0.00000
    116      34.4164      0.00000
    117      35.1015      0.00000
    118      35.2976      0.00000
    119      35.4298      0.00000
    120      35.5377      0.00000
    121      35.9684      0.00000
    122      36.6699      0.00000
    123      36.6919      0.00000
    124      37.3737      0.00000
    125      37.3791      0.00000
    126      37.5527      0.00000
    127      37.5975      0.00000
    128      38.0386      0.00000

 k-point     3 :       0.2000    0.0000   -0.2000
  band No.  band energies     occupation 
      1     -19.3493      2.00000
      2     -16.2652      2.00000
      3     -16.2464      2.00000
      4     -16.2413      2.00000
      5     -11.4197      2.00000
      6     -11.3761      2.00000
      7     -10.0619      2.00000
      8     -10.0457      2.00000
      9     -10.0080      2.00000
     10      -8.1287      2.00000
     11      -5.9092      2.00000
     12      -5.8172      2.00000
     13      -5.7617      2.00000
     14      -5.7150      2.00000
     15      -5.6486      2.00000
     16      -5.5997      2.00000
     17      -3.2713      2.00000
     18      -3.1220      2.00000
     19      -3.1037      2.00000
     20      -2.9396      2.00000
     21      -2.7928      2.00000
     22      -2.6189      2.00000
     23      -2.6059      2.00000
     24      -2.5895      2.00000
     25      -2.4163      2.00000
     26       0.6302      2.00000
     27       0.7516      2.00000
     28       0.8622      2.00000
     29       6.3842      0.00000
     30       7.2489      0.00000
     31       7.3411      0.00000
     32       7.9702      0.00000
     33       8.5220      0.00000
     34       9.2630      0.00000
     35       9.3122      0.00000
     36       9.7259      0.00000
     37       9.7569      0.00000
     38       9.9655      0.00000
     39      10.4105      0.00000
     40      10.4279      0.00000
     41      10.5545      0.00000
     42      10.6153      0.00000
     43      10.8639      0.00000
     44      11.1387      0.00000
     45      11.5933      0.00000
     46      12.0692      0.00000
     47      12.7994      0.00000
     48      12.8824      0.00000
     49      13.0625      0.00000
     50      13.1199      0.00000
     51      13.1795      0.00000
     52      13.2518      0.00000
     53      13.6554      0.00000
     54      13.9071      0.00000
     55      15.7500      0.00000
     56      15.7731      0.00000
     57      16.1809      0.00000
     58      16.2246      0.00000
     59      16.3265      0.00000
     60      16.4816      0.00000
     61      16.8657      0.00000
     62      17.4497      0.00000
     63      17.7475      0.00000
     64      17.9883      0.00000
     65      18.8594      0.00000
     66      18.9538      0.00000
     67      19.7713      0.00000
     68      19.8157      0.00000
     69      20.2547      0.00000
     70      20.5361      0.00000
     71      20.5556      0.00000
     72      20.8670      0.00000
     73      21.3203      0.00000
     74      21.4527      0.00000
     75      22.3156      0.00000
     76      22.3370      0.00000
     77      22.5882      0.00000
     78      23.4264      0.00000
     79      23.9159      0.00000
     80      23.9341      0.00000
     81      24.3863      0.00000
     82      24.4353      0.00000
     83      24.5423      0.00000
     84      24.9747      0.00000
     85      25.4484      0.00000
     86      25.5910      0.00000
     87      26.0268      0.00000
     88      26.0761      0.00000
     89      26.4410      0.00000
     90      26.5936      0.00000
     91      26.8157      0.00000
     92      27.4358      0.00000
     93      27.7422      0.00000
     94      27.7766      0.00000
     95      28.4092      0.00000
     96      28.4267      0.00000
     97      28.9455      0.00000
     98      29.3690      0.00000
     99      29.3926      0.00000
    100      29.5186      0.00000
    101      30.0317      0.00000
    102      30.0338      0.00000
    103      30.2886      0.00000
    104      30.8302      0.00000
    105      31.0610      0.00000
    106      31.8175      0.00000
    107      32.2529      0.00000
    108      32.2546      0.00000
    109      32.5195      0.00000
    110      32.6002      0.00000
    111      32.9573      0.00000
    112      33.1245      0.00000
    113      33.1485      0.00000
    114      33.8852      0.00000
    115      34.3018      0.00000
    116      34.4163      0.00000
    117      35.1013      0.00000
    118      35.2976      0.00000
    119      35.4298      0.00000
    120      35.5378      0.00000
    121      35.9685      0.00000
    122      36.6698      0.00000
    123      36.6921      0.00000
    124      37.3738      0.00000
    125      37.3787      0.00000
    126      37.5527      0.00000
    127      37.5975      0.00000
    128      38.0438      0.00000

 k-point     4 :       0.4000    0.0000    0.0000
  band No.  band energies     occupation 
      1     -19.3307      2.00000
      2     -16.3091      2.00000
      3     -16.2597      2.00000
      4     -16.2464      2.00000
      5     -11.4354      2.00000
      6     -11.3173      2.00000
      7     -10.1187      2.00000
      8     -10.0633      2.00000
      9      -9.9755      2.00000
     10      -7.7527      2.00000
     11      -6.1362      2.00000
     12      -6.0005      2.00000
     13      -5.7299      2.00000
     14      -5.6303      2.00000
     15      -5.5570      2.00000
     16      -5.5053      2.00000
     17      -3.6384      2.00000
     18      -3.2655      2.00000
     19      -3.1412      2.00000
     20      -2.9464      2.00000
     21      -2.7285      2.00000
     22      -2.6818      2.00000
     23      -2.6378      2.00000
     24      -2.5912      2.00000
     25      -2.4039      2.00000
     26       0.6040      2.00000
     27       0.8782      2.00000
     28       1.2163      2.00000
     29       6.4318      0.00000
     30       6.8663      0.00000
     31       7.3480      0.00000
     32       7.9734      0.00000
     33       8.4479      0.00000
     34       9.0471      0.00000
     35       9.0535      0.00000
     36       9.4169      0.00000
     37       9.8814      0.00000
     38      10.2068      0.00000
     39      10.2121      0.00000
     40      10.4972      0.00000
     41      10.6227      0.00000
     42      11.1105      0.00000
     43      11.5239      0.00000
     44      11.6658      0.00000
     45      11.7543      0.00000
     46      11.9178      0.00000
     47      12.4239      0.00000
     48      12.6052      0.00000
     49      12.7889      0.00000
     50      13.3639      0.00000
     51      13.3975      0.00000
     52      13.5033      0.00000
     53      14.0889      0.00000
     54      14.2598      0.00000
     55      14.8475      0.00000
     56      15.2786      0.00000
     57      15.3884      0.00000
     58      15.8755      0.00000
     59      16.2293      0.00000
     60      16.8100      0.00000
     61      16.8799      0.00000
     62      17.3761      0.00000
     63      17.9576      0.00000
     64      18.7656      0.00000
     65      19.1445      0.00000
     66      19.5077      0.00000
     67      19.7502      0.00000
     68      20.3029      0.00000
     69      20.3680      0.00000
     70      20.7180      0.00000
     71      20.9286      0.00000
     72      21.0564      0.00000
     73      21.2668      0.00000
     74      21.2890      0.00000
     75      21.5879      0.00000
     76      22.3601      0.00000
     77      22.5414      0.00000
     78      23.0962      0.00000
     79      23.2095      0.00000
     80      23.3008      0.00000
     81      23.4808      0.00000
     82      24.2314      0.00000
     83      24.2760      0.00000
     84      24.4357      0.00000
     85      25.2189      0.00000
     86      25.3734      0.00000
     87      25.5362      0.00000
[...]
     72      21.0106      0.00000
     73      21.0107      0.00000
     74      21.0674      0.00000
     75      21.6144      0.00000
     76      22.1655      0.00000
     77      22.1656      0.00000
     78      22.8448      0.00000
     79      22.8448      0.00000
     80      23.0336      0.00000
     81      23.9610      0.00000
     82      24.5029      0.00000
     83      24.5029      0.00000
     84      25.1805      0.00000
     85      25.5624      0.00000
     86      25.5625      0.00000
     87      25.5866      0.00000
     88      26.4650      0.00000
     89      26.4651      0.00000
     90      26.6022      0.00000
     91      28.0390      0.00000
     92      28.0391      0.00000
     93      28.0499      0.00000
     94      28.6773      0.00000
     95      28.9336      0.00000
     96      28.9337      0.00000
     97      29.2278      0.00000
     98      29.7381      0.00000
     99      29.7382      0.00000
    100      30.7999      0.00000
    101      30.7999      0.00000
    102      30.9065      0.00000
    103      31.0811      0.00000
    104      31.0811      0.00000
    105      31.3513      0.00000
    106      31.9924      0.00000
    107      32.3799      0.00000
    108      32.3799      0.00000
    109      32.4021      0.00000
    110      32.6633      0.00000
    111      32.6634      0.00000
    112      33.2915      0.00000
    113      33.2916      0.00000
    114      33.5968      0.00000
    115      34.4986      0.00000
    116      34.4986      0.00000
    117      34.6658      0.00000
    118      34.9149      0.00000
    119      34.9151      0.00000
    120      35.1085      0.00000
    121      35.9503      0.00000
    122      35.9504      0.00000
    123      36.1263      0.00000
    124      36.6919      0.00000
    125      36.6920      0.00000
    126      37.5871      0.00000
    127      37.5886      0.00000
    128      37.6451      0.00000

 k-point    18 :       0.4000    0.4000    0.4000
  band No.  band energies     occupation 
      1     -19.3170      2.00000
      2     -16.2921      2.00000
      3     -16.2921      2.00000
      4     -16.2628      2.00000
      5     -11.4839      2.00000
      6     -11.4839      2.00000
      7      -9.9880      2.00000
      8      -9.9455      2.00000
      9      -9.9455      2.00000
     10      -7.6813      2.00000
     11      -5.8674      2.00000
     12      -5.8576      2.00000
     13      -5.8576      2.00000
     14      -5.5100      2.00000
     15      -5.5100      2.00000
     16      -5.4689      2.00000
     17      -3.6698      2.00000
     18      -3.6698      2.00000
     19      -3.3553      2.00000
     20      -3.0618      2.00000
     21      -3.0618      2.00000
     22      -2.6638      2.00000
     23      -2.5937      2.00000
     24      -2.5937      2.00000
     25      -2.5801      2.00000
     26       0.9513      2.00000
     27       1.2572      2.00000
     28       1.2572      2.00000
     29       6.7399      0.00000
     30       7.1557      0.00000
     31       7.1557      0.00000
     32       7.7417      0.00000
     33       7.7417      0.00000
     34       8.3674      0.00000
     35       9.1747      0.00000
     36       9.1747      0.00000
     37       9.2391      0.00000
     38      10.7077      0.00000
     39      11.0231      0.00000
     40      11.0231      0.00000
     41      11.1099      0.00000
     42      11.1099      0.00000
     43      11.1631      0.00000
     44      11.3811      0.00000
     45      11.3811      0.00000
     46      12.1006      0.00000
     47      12.4246      0.00000
     48      12.4246      0.00000
     49      12.9879      0.00000
     50      13.5383      0.00000
     51      14.0634      0.00000
     52      14.0634      0.00000
     53      14.5259      0.00000
     54      14.5259      0.00000
     55      14.6297      0.00000
     56      15.2692      0.00000
     57      15.2692      0.00000
     58      15.8784      0.00000
     59      16.1542      0.00000
     60      17.1814      0.00000
     61      17.1814      0.00000
     62      17.6784      0.00000
     63      18.2315      0.00000
     64      18.4036      0.00000
     65      18.4036      0.00000
     66      19.1422      0.00000
     67      19.1935      0.00000
     68      19.1935      0.00000
     69      20.1483      0.00000
     70      20.3088      0.00000
     71      20.3088      0.00000
     72      21.0107      0.00000
     73      21.0107      0.00000
     74      21.0674      0.00000
     75      21.6143      0.00000
     76      22.1656      0.00000
     77      22.1656      0.00000
     78      22.8447      0.00000
     79      22.8447      0.00000
     80      23.0336      0.00000
     81      23.9609      0.00000
     82      24.5028      0.00000
     83      24.5028      0.00000
     84      25.1808      0.00000
     85      25.5625      0.00000
     86      25.5625      0.00000
     87      25.5867      0.00000
     88      26.4651      0.00000
     89      26.4651      0.00000
     90      26.6021      0.00000
     91      28.0390      0.00000
     92      28.0390      0.00000
     93      28.0499      0.00000
     94      28.6774      0.00000
     95      28.9336      0.00000
     96      28.9336      0.00000
     97      29.2279      0.00000
     98      29.7381      0.00000
     99      29.7381      0.00000
    100      30.7998      0.00000
    101      30.7998      0.00000
    102      30.9065      0.00000
    103      31.0811      0.00000
    104      31.0811      0.00000
    105      31.3513      0.00000
    106      31.9924      0.00000
    107      32.3799      0.00000
    108      32.3799      0.00000
    109      32.4021      0.00000
    110      32.6634      0.00000
    111      32.6634      0.00000
    112      33.2915      0.00000
    113      33.2915      0.00000
    114      33.5969      0.00000
    115      34.4986      0.00000
    116      34.4986      0.00000
    117      34.6658      0.00000
    118      34.9151      0.00000
    119      34.9151      0.00000
    120      35.1083      0.00000
    121      35.9504      0.00000
    122      35.9504      0.00000
    123      36.1262      0.00000
    124      36.6919      0.00000
    125      36.6919      0.00000
    126      37.5869      0.00000
    127      37.5889      0.00000
    128      37.6451      0.00000

 k-point    19 :      -0.4000    0.4000    0.4000
  band No.  band energies     occupation 
      1     -19.3121      2.00000
      2     -16.2894      2.00000
      3     -16.2825      2.00000
      4     -16.2825      2.00000
      5     -11.5647      2.00000
      6     -11.5276      2.00000
      7      -9.9309      2.00000
      8      -9.8919      2.00000
      9      -9.8918      2.00000
     10      -7.7050      2.00000
     11      -5.8474      2.00000
     12      -5.7342      2.00000
     13      -5.7341      2.00000
     14      -5.4870      2.00000
     15      -5.4662      2.00000
     16      -5.4661      2.00000
     17      -3.7068      2.00000
     18      -3.5680      2.00000
     19      -3.5678      2.00000
     20      -3.3766      2.00000
     21      -3.1667      2.00000
     22      -2.8152      2.00000
     23      -2.5638      2.00000
     24      -2.5635      2.00000
     25      -2.5500      2.00000
     26       1.2573      2.00000
     27       1.2774      2.00000
     28       1.2777      2.00000
     29       7.1566      0.00000
     30       7.1981      0.00000
     31       7.3835      0.00000
     32       7.3836      0.00000
     33       7.5465      0.00000
     34       8.3282      0.00000
     35       8.6708      0.00000
     36       8.9983      0.00000
     37       8.9985      0.00000
     38      10.7865      0.00000
     39      10.9261      0.00000
     40      10.9263      0.00000
     41      11.0107      0.00000
     42      11.2029      0.00000
     43      11.2033      0.00000
     44      11.5227      0.00000
     45      11.5395      0.00000
     46      11.6797      0.00000
     47      13.0020      0.00000
     48      13.0131      0.00000
     49      13.0132      0.00000
     50      14.2063      0.00000
     51      14.3164      0.00000
     52      14.3248      0.00000
     53      14.3248      0.00000
     54      14.8199      0.00000
     55      14.9097      0.00000
     56      14.9099      0.00000
     57      15.2029      0.00000
     58      15.8179      0.00000
     59      15.8636      0.00000
     60      17.0314      0.00000
     61      17.0315      0.00000
     62      17.2682      0.00000
     63      18.1675      0.00000
     64      18.7117      0.00000
     65      18.7118      0.00000
     66      18.9938      0.00000
     67      19.0181      0.00000
     68      19.3305      0.00000
     69      19.3305      0.00000
     70      19.8634      0.00000
     71      20.0985      0.00000
     72      20.9409      0.00000
     73      20.9410      0.00000
     74      21.2472      0.00000
     75      21.6540      0.00000
     76      22.0969      0.00000
     77      22.2269      0.00000
     78      22.2269      0.00000
     79      22.5986      0.00000
     80      22.9247      0.00000
     81      23.9910      0.00000
     82      23.9910      0.00000
     83      24.6251      0.00000
     84      25.2496      0.00000
     85      25.6234      0.00000
     86      25.6234      0.00000
     87      25.8791      0.00000
     88      26.9771      0.00000
     89      27.3712      0.00000
     90      27.9142      0.00000
     91      27.9143      0.00000
     92      28.3368      0.00000
     93      28.5746      0.00000
     94      28.8697      0.00000
     95      28.8697      0.00000
     96      29.7311      0.00000
     97      29.7311      0.00000
     98      29.8974      0.00000
     99      29.9338      0.00000
    100      30.5609      0.00000
    101      30.5717      0.00000
    102      30.5717      0.00000
    103      30.7137      0.00000
    104      31.6665      0.00000
    105      31.7601      0.00000
    106      31.7601      0.00000
    107      31.9481      0.00000
    108      32.0280      0.00000
    109      32.0280      0.00000
    110      32.5383      0.00000
    111      32.9226      0.00000
    112      32.9513      0.00000
    113      32.9513      0.00000
    114      33.5386      0.00000
    115      33.8069      0.00000
    116      34.1235      0.00000
    117      34.1236      0.00000
    118      34.3407      0.00000
    119      34.7203      0.00000
    120      35.0779      0.00000
    121      35.0779      0.00000
    122      35.7125      0.00000
    123      36.2078      0.00000
    124      36.8059      0.00000
    125      37.1330      0.00000
    126      37.2023      0.00000
    127      37.2087      0.00000
    128      37.2782      0.00000


--------------------------------------------------------------------------------------------------------


 soft charge-density along one line, spin component           1
         0         1         2         3         4         5         6         7         8         9
 total charge-density along one line

 pseudopotential strength for first ion, spin component:           1
 -2.503  -5.318   0.000  -0.000   0.000
 -5.318 -11.271   0.001  -0.001   0.001
  0.000   0.001  -1.420  -0.001   0.001
 -0.000  -0.001  -0.001  -1.420  -0.001
  0.000   0.001   0.001  -0.001  -1.420
 total augmentation occupancy for first ion, spin component:           1
  3.580  -0.526  -0.129   0.129  -0.128
 -0.526   0.090   0.020  -0.020   0.019
 -0.129   0.020   0.006  -0.004   0.004
  0.129  -0.020  -0.004   0.006  -0.004
 -0.128   0.019   0.004  -0.004   0.006


------------------------ aborting loop because EDIFF is reached ----------------------------------------


    FORLOC:  cpu time      0.0051: real time      0.0051
    FORNL :  cpu time      0.3071: real time      0.3071
    FORCOR:  cpu time      0.0174: real time      0.0175
    OFIELD:  cpu time      0.0033: real time      0.0032

 ---------------------------------------------------------------------------------------------

         DFTD3 V3.0 Rev 1        
 IVDW         = 11
 DF rpbe      
 parameters
 VDW_S6       =    1.0000
 VDW_S8       =    0.5140
 VDW_SR       =    0.8720
 rs18     =    1.0000
 alpha6   =   14.0000
 alpha8   =   16.0000
 k1-k3    =   16.0000    1.3333   -4.0000
 VDW_RADIUS   =   50.2022 A
 VDW_CNRADIUS =   21.1671 A
 Edisp (eV)   -2.30087

 E6    (eV) :    -1.9893
 E8    (eV) :    -0.3116
 % E8        : 13.54
    FORVDW:  cpu time      0.4026: real time      0.4031

 VOLUME and BASIS-vectors are now :
 -----------------------------------------------------------------------------
  energy-cutoff  :     1000.00
  volume of cell :      168.04
      direct lattice vectors                 reciprocal lattice vectors
    -3.476325100  3.476325100  3.476325100    -0.000000000  0.143830046  0.143830046
     3.476325100 -3.476325100  3.476325100     0.143830046 -0.000000000  0.143830046
     3.476325100  3.476325100 -3.476325100     0.143830046  0.143830046 -0.000000000

  length of vectors
     6.021171697  6.021171697  6.021171697     0.203406402  0.203406402  0.203406402


 FORCES acting on ions:
    Electron-Ion                     Ewald-Force                    Non-Local-Force
 -----------------------------------------------------------------------------------------------
   -.494E+02 -.278E+02 0.278E+02   0.527E+02 0.310E+02 -.310E+02   -.331E+01 -.330E+01 0.330E+01
   0.278E+02 -.494E+02 -.278E+02   -.310E+02 0.527E+02 0.310E+02   0.330E+01 -.331E+01 -.330E+01
   0.494E+02 -.278E+02 -.278E+02   -.527E+02 0.310E+02 0.310E+02   0.331E+01 -.330E+01 -.330E+01
   0.278E+02 -.278E+02 -.494E+02   -.310E+02 0.310E+02 0.527E+02   0.330E+01 -.330E+01 -.331E+01
   -.278E+02 -.494E+02 0.278E+02   0.310E+02 0.527E+02 -.310E+02   -.330E+01 -.331E+01 0.330E+01
   -.278E+02 0.278E+02 -.494E+02   0.310E+02 -.310E+02 0.527E+02   -.330E+01 0.330E+01 -.331E+01
   0.494E+02 0.278E+02 0.278E+02   -.527E+02 -.310E+02 -.310E+02   0.330E+01 0.330E+01 0.330E+01
   0.278E+02 0.494E+02 0.278E+02   -.310E+02 -.527E+02 -.310E+02   0.330E+01 0.330E+01 0.330E+01
   -.278E+02 0.494E+02 -.278E+02   0.310E+02 -.527E+02 0.310E+02   -.330E+01 0.331E+01 -.330E+01
   -.494E+02 0.278E+02 -.278E+02   0.527E+02 -.310E+02 0.310E+02   -.331E+01 0.330E+01 -.330E+01
   -.278E+02 -.278E+02 0.494E+02   0.310E+02 0.310E+02 -.527E+02   -.330E+01 -.330E+01 0.331E+01
   0.278E+02 0.278E+02 0.494E+02   -.310E+02 -.310E+02 -.527E+02   0.330E+01 0.330E+01 0.330E+01
   -.191E+03 0.156E-03 0.156E-03   0.198E+03 -.191E-03 -.191E-03   -.628E+01 -.114E-04 -.114E-04
   0.156E-03 -.191E+03 0.156E-03   -.191E-03 0.198E+03 -.191E-03   -.114E-04 -.628E+01 -.114E-04
   0.191E+03 -.979E-04 -.980E-04   -.198E+03 0.534E-04 0.534E-04   0.628E+01 -.179E-03 -.179E-03
   0.156E-03 0.156E-03 -.191E+03   -.191E-03 -.191E-03 0.198E+03   -.114E-04 -.114E-04 -.628E+01
   -.979E-04 0.191E+03 -.980E-04   0.534E-04 -.198E+03 0.534E-04   -.179E-03 0.628E+01 -.179E-03
   -.979E-04 -.979E-04 0.191E+03   0.534E-04 0.534E-04 -.198E+03   -.179E-03 -.179E-03 0.628E+01
   -.133E+03 -.133E+03 -.133E+03   0.151E+03 0.151E+03 0.151E+03   -.174E+02 -.174E+02 -.174E+02
   0.133E+03 -.133E+03 0.133E+03   -.151E+03 0.151E+03 -.151E+03   0.174E+02 -.174E+02 0.174E+02
   0.133E+03 0.133E+03 -.133E+03   -.151E+03 -.151E+03 0.151E+03   0.174E+02 0.174E+02 -.174E+02
   -.133E+03 0.133E+03 0.133E+03   0.151E+03 -.151E+03 -.151E+03   -.174E+02 0.174E+02 0.174E+02
 -----------------------------------------------------------------------------------------------
   0.225E-02 0.225E-02 0.225E-02   -.284E-13 0.000E+00 0.000E+00   -.235E-02 -.235E-02 -.235E-02


 POSITION                                       TOTAL-FORCE (eV/Angst)
 -----------------------------------------------------------------------------------
      2.63776      0.95716     -0.31904         0.007036     -0.009984      0.010047
     -0.31904      2.63776      0.95716         0.010047      0.007036     -0.009984
      4.95296      0.95716      0.95716        -0.005778     -0.010843     -0.010843
     -0.31904      0.95716      2.63776         0.010047     -0.009984      0.007036
      0.95716      2.63776     -0.31904        -0.009984      0.007036      0.010047
      0.95716     -0.31904      2.63776        -0.009984      0.010047      0.007036
      1.47666      3.15726      3.15726        -0.005620      0.011109      0.011109
      3.15726      1.47666      3.15726         0.011109     -0.005620      0.011109
      0.95716      4.95296      0.95716        -0.010843     -0.005778     -0.010843
      2.63776     -0.31904      0.95716         0.007036      0.010047     -0.009984
      0.95716      0.95716      4.95296        -0.010843     -0.010843     -0.005778
      3.15726      3.15726      1.47666         0.011109      0.011109     -0.005620
      2.00886      0.31906      0.31906         0.180179     -0.000041     -0.000041
      0.31906      2.00886      0.31906        -0.000041      0.180179     -0.000041
      5.58196      0.31906      0.31906        -0.184135     -0.000215     -0.000215
      0.31906      0.31906      2.00886        -0.000041     -0.000041      0.180179
      0.31906      5.58196      0.31906        -0.000215     -0.184135     -0.000215
      0.31906      0.31906      5.58196        -0.000215     -0.000215     -0.184135
      1.18656      1.18656      1.18656         0.250108      0.250108      0.250108
      2.92786     -2.28974      2.92786        -0.249349      0.249727     -0.249349
      2.92786      2.92786     -2.28974        -0.249349     -0.249349      0.249727
     -2.28974      2.92786      2.92786         0.249727     -0.249349     -0.249349
 -----------------------------------------------------------------------------------
    total drift:                               -0.000102     -0.000102     -0.000103


--------------------------------------------------------------------------------------------------------



  FREE ENERGIE OF THE ION-ELECTRON SYSTEM (eV)
  ---------------------------------------------------
  free  energy   TOTEN  =      -129.35067917 eV

  energy  without entropy=     -129.35067917  energy(sigma->0) =     -129.35067917



--------------------------------------------------------------------------------------------------------


    POTLOK:  cpu time      0.0420: real time      0.0420


--------------------------------------------------------------------------------------------------------


 stress matrix after NEB project (eV)
     -2.18088      0.00001      0.00001
      0.00001     -2.18088      0.00001
      0.00001      0.00001     -2.18088
  FORCES: max atom, RMS     0.433200    0.207808
  FORCE total and by dimension    0.974708    0.250108
  Stress total and by dimension    3.777390    2.180877
     LOOP+:  cpu time    151.5350: real time    151.7932
    4ORBIT:  cpu time      0.0000: real time      0.0000

 total amount of memory used by VASP MPI-rank0    71114. kBytes
=======================================================================

   base      :      30000. kBytes
   nonl-proj :      24576. kBytes
   fftplans  :       4451. kBytes
   grid      :       6336. kBytes
   one-center:         33. kBytes
   wavefun   :       5718. kBytes

  
  
 General timing and accounting informations for this job:
 ========================================================
  
                  Total CPU time used (sec):      173.599
                            User time (sec):      171.719
                          System time (sec):        1.879
                         Elapsed time (sec):      177.558
  
                   Maximum memory used (kb):      315072.
                   Average memory used (kb):          N/A
  
                          Minor page faults:        65271
                          Major page faults:         1172
                 Voluntary context switches:         5679
