 vasp.6.4.1 05Apr23 (build Jun  6 2023 14:36:51) complex                         
 executed on        HPECrayEX_GCC date 2024.08.20  14:48:19
 running  256 mpi-ranks, with    1 threads/rank, on    2 nodes
 distrk:  each k-point on  256 cores,    1 groups
 distr:  one band on NCORE=   2 cores,  128 groups


--------------------------------------------------------------------------------------------------------


 INCAR:
   ALGO = Conjugate
   NCORE = 2
   PREC = Accurate
   EDIFF = 1E-7
   ENCUT = 1000
   ISMEAR = 0
   SIGMA = 0.01
   ISIF = 0
   SYMPREC = 1E-7
   IVDW = 11
   LWAVE = .FALSE.
   LCHARGE = .FALSE.
   LWAVE = .FALSE.
   LCHARGE = .FALSE.

 POTCAR:    PAW_PBE H_h 06Feb2004                 
 POTCAR:    PAW_PBE C_h 06Feb2004                 
 POTCAR:    PAW_PBE N_h 06Feb2004                 
 POTCAR:    PAW_PBE H_h 06Feb2004                 
   VRHFIN =H: ultrasoft test                                                                        
   LEXCH  = PE                                                                                      
   EATOM  =    12.4884 eV,    0.9179 Ry                                                             
                                                                                                    
   TITEL  = PAW_PBE H_h 06Feb2004                                                                   
   LULTRA =        F    use ultrasoft PP ?                                                          
   IUNSCR =        0    unscreen: 0-lin 1-nonlin 2-no                                               
   RPACOR =    0.000    partial core radius                                                         
   POMASS =    1.000; ZVAL   =    1.000    mass and valenz                                          
   RCORE  =    0.800    outmost cutoff radius                                                       
   RWIGS  =    0.700; RWIGS  =    0.370    wigner-seitz radius (au A)                               
   ENMAX  =  700.000; ENMIN  =  350.000 eV                                                          
   RCLOC  =    0.701    cutoff for local pot                                                        
   LCOR   =        T    correct aug charges                                                         
   LPAW   =        T    paw PP                                                                      
   EAUG   = 1000.000                                                                                
   RMAX   =    0.819    core radius for proj-oper                                                   
   RAUG   =    1.000    factor for augmentation sphere                                              
   RDEP   =    0.817    radius for radial grids                                                     
   RDEPT  =    0.817    core radius for aug-charge                                                  
                                                                                                    
   Atomic configuration                                                                             
    2 entries                                                                                       
     n  l   j            E        occ.                                                              
     1  0  0.50        -6.4927   1.0000                                                             
     2  1  0.50        -3.4015   0.0000                                                             
   Description                                                                                      
     l       E           TYP  RCUT    TYP  RCUT                                                     
     0     -6.4927493     23  0.800                                                                 
     0      6.8029130     23  0.800                                                                 
     1     -6.8029130     23  0.800                                                                 
  local pseudopotential read in
  atomic valenz-charges read in
  non local Contribution for L=           0  read in
    real space projection operators read in
  non local Contribution for L=           0  read in
    real space projection operators read in
  non local Contribution for L=           1  read in
    real space projection operators read in
    PAW grid and wavefunctions read in

   number of l-projection  operators is LMAX  =           3
   number of lm-projection operators is LMMAX =           5

 POTCAR:    PAW_PBE C_h 06Feb2004                 
   VRHFIN =C: s2p2                                                                                  
   LEXCH  = PE                                                                                      
   EATOM  =   147.1560 eV,   10.8157 Ry                                                             
                                                                                                    
   TITEL  = PAW_PBE C_h 06Feb2004                                                                   
   LULTRA =        F    use ultrasoft PP ?                                                          
   IUNSCR =        1    unscreen: 0-lin 1-nonlin 2-no                                               
   RPACOR =    0.800    partial core radius                                                         
   POMASS =   12.011; ZVAL   =    4.000    mass and valenz                                          
   RCORE  =    1.100    outmost cutoff radius                                                       
   RWIGS  =    1.630; RWIGS  =    0.863    wigner-seitz radius (au A)                               
   ENMAX  =  700.000; ENMIN  =  500.000 eV                                                          
   ICORE  =        2    local potential                                                             
   LCOR   =        T    correct aug charges                                                         
   LPAW   =        T    paw PP                                                                      
   EAUG   =  946.768                                                                                
   DEXC   =    0.000                                                                                
   RMAX   =    1.128    core radius for proj-oper                                                   
   RAUG   =    1.300    factor for augmentation sphere                                              
   RDEP   =    1.162    radius for radial grids                                                     
   RDEPT  =    1.088    core radius for aug-charge                                                  
                                                                                                    
   Atomic configuration                                                                             
    4 entries                                                                                       
     n  l   j            E        occ.                                                              
     1  0  0.50      -273.3789   2.0000                                                             
     2  0  0.50       -13.7508   2.0000                                                             
     2  1  0.50        -5.2854   2.0000                                                             
     3  2  1.50        -5.4423   0.0000                                                             
   Description                                                                                      
     l       E           TYP  RCUT    TYP  RCUT                                                     
     0    -13.7508458     23  1.100                                                                 
     0     -8.2022199     23  1.100                                                                 
     1     -5.2854383     23  1.100                                                                 
     1      1.1560700     23  1.100                                                                 
     2     -5.4423304      7  1.100                                                                 
  local pseudopotential read in
  partial core-charges read in
  partial kinetic energy density read in
  atomic valenz-charges read in
  non local Contribution for L=           0  read in
    real space projection operators read in
  non local Contribution for L=           0  read in
    real space projection operators read in
  non local Contribution for L=           1  read in
    real space projection operators read in
  non local Contribution for L=           1  read in
    real space projection operators read in
    PAW grid and wavefunctions read in

   number of l-projection  operators is LMAX  =           4
   number of lm-projection operators is LMMAX =           8

 POTCAR:    PAW_PBE N_h 06Feb2004                 
   VRHFIN =N: s2p3                                                                                  
   LEXCH  = PE                                                                                      
   EATOM  =   264.5486 eV,   19.4438 Ry                                                             
                                                                                                    
   TITEL  = PAW_PBE N_h 06Feb2004                                                                   
   LULTRA =        F    use ultrasoft PP ?                                                          
   IUNSCR =        1    unscreen: 0-lin 1-nonlin 2-no                                               
   RPACOR =    0.800    partial core radius                                                         
   POMASS =   14.001; ZVAL   =    5.000    mass and valenz                                          
   RCORE  =    1.100    outmost cutoff radius                                                       
   RWIGS  =    1.480; RWIGS  =    0.783    wigner-seitz radius (au A)                               
   ENMAX  =  700.000; ENMIN  =  500.000 eV                                                          
   ICORE  =        2    local potential                                                             
   LCOR   =        T    correct aug charges                                                         
   LPAW   =        T    paw PP                                                                      
   EAUG   =  904.640                                                                                
   DEXC   =    0.000                                                                                
   RMAX   =    1.127    core radius for proj-oper                                                   
   RAUG   =    1.300    factor for augmentation sphere                                              
   RDEP   =    1.115    radius for radial grids                                                     
   RDEPT  =    1.106    core radius for aug-charge                                                  
                                                                                                    
   Atomic configuration                                                                             
    4 entries                                                                                       
     n  l   j            E        occ.                                                              
     1  0  0.50      -384.7179   2.0000                                                             
     2  0  0.50       -18.5828   2.0000                                                             
     2  1  0.50        -7.0898   3.0000                                                             
     3  2  1.50        -6.8029   0.0000                                                             
   Description                                                                                      
     l       E           TYP  RCUT    TYP  RCUT                                                     
     0    -18.5828117     23  1.100                                                                 
     0    -15.0750597     23  1.100                                                                 
     1     -7.0897851     23  1.100                                                                 
     1     -1.9663412     23  1.100                                                                 
     2     -6.8029130      7  1.100                                                                 
  local pseudopotential read in
  partial core-charges read in
  partial kinetic energy density read in
  kinetic energy density of atom read in
  atomic valenz-charges read in
  non local Contribution for L=           0  read in
    real space projection operators read in
  non local Contribution for L=           0  read in
    real space projection operators read in
  non local Contribution for L=           1  read in
    real space projection operators read in
  non local Contribution for L=           1  read in
    real space projection operators read in
    PAW grid and wavefunctions read in

   number of l-projection  operators is LMAX  =           4
   number of lm-projection operators is LMMAX =           8

 -----------------------------------------------------------------------------
|                                                                             |
|               ----> ADVICE to this user running VASP <----                  |
|                                                                             |
|     You have a (more or less) 'large supercell' and for larger cells it     |
|     might be more efficient to use real-space projection operators.         |
|     Therefore, try LREAL= Auto in the INCAR file.                           |
|     Mind: For very accurate calculation, you might also keep the            |
|     reciprocal projection scheme (i.e. LREAL=.FALSE.).                      |
|                                                                             |
 -----------------------------------------------------------------------------

  PAW_PBE H_h 06Feb2004                 :
 energy of atom  1       EATOM=  -12.4884
 kinetic energy error for atom=    0.0006 (will be added to EATOM!!)
  PAW_PBE C_h 06Feb2004                 :
 energy of atom  2       EATOM= -147.1560
 kinetic energy error for atom=    0.0031 (will be added to EATOM!!)
  PAW_PBE N_h 06Feb2004                 :
 energy of atom  3       EATOM= -264.5486
 kinetic energy error for atom=    0.0081 (will be added to EATOM!!)


 POSCAR:  H  C  N
  positions in cartesian coordinates
  No initial velocities read in
 exchange correlation table for  LEXCH =        8
   RHO(1)=    0.500       N(1)  =     2000
   RHO(2)=  100.500       N(2)  =     4000

 VTST: version 4.1, (05/19/21)

 CHAIN: initializing optimizer
 
 OPT: Using VASP Dynamics algorithm
 CHAIN: Read ICHAIN            0

 POSCAR:  H  C  N
  positions in cartesian coordinates
  No initial velocities read in



--------------------------------------------------------------------------------------------------------


 ion  position               nearest neighbor table
   1  0.092  0.334  0.517-  13 1.10
   2  0.517  0.092  0.334-  14 1.10
   3  0.275  0.850  0.850-  15 1.10
   4  0.517  0.334  0.092-  16 1.10
   5  0.334  0.092  0.517-  14 1.10
   6  0.334  0.517  0.092-  16 1.10
   7  0.908  0.666  0.666-  15 1.10
   8  0.666  0.908  0.666-  17 1.10
   9  0.850  0.275  0.850-  17 1.10
  10  0.092  0.517  0.334-  13 1.10
  11  0.850  0.850  0.275-  18 1.10
  12  0.666  0.666  0.908-  18 1.10
  13  0.092  0.335  0.335-  10 1.10   1 1.10  19 1.48  22 1.48
  14  0.335  0.092  0.335-   2 1.10   5 1.10  19 1.48  20 1.48
  15  0.092  0.849  0.849-   3 1.10   7 1.10  21 1.48  20 1.48
  16  0.335  0.335  0.092-   6 1.10   4 1.10  19 1.48  21 1.48
  17  0.849  0.092  0.849-   9 1.10   8 1.10  21 1.48  22 1.48
  18  0.849  0.849  0.092-  11 1.10  12 1.10  22 1.48  20 1.48
  19  0.341  0.341  0.341-  13 1.48  14 1.48  16 1.48
  20  0.092  0.842  0.092-  15 1.48  18 1.48  14 1.48
  21  0.092  0.092  0.842-  15 1.48  17 1.48  16 1.48
  22  0.842  0.092  0.092-  17 1.48  18 1.48  13 1.48

  LATTYP: Found a body centered cubic cell.
 ALAT       =     6.9526502000
  
  Lattice vectors:
  
 A1 = (  -3.4763251000,   3.4763251000,   3.4763251000)
 A2 = (   3.4763251000,  -3.4763251000,   3.4763251000)
 A3 = (   3.4763251000,   3.4763251000,  -3.4763251000)


Analysis of symmetry for initial positions (statically):
=====================================================================
 Subroutine PRICEL returns:
 Original cell was already a primitive cell.
 

 Routine SETGRP: Setting up the symmetry group for a 
 body centered cubic supercell.


 Subroutine GETGRP returns: Found  6 space group operations
 (whereof  6 operations were pure point group operations)
 out of a pool of 48 trial point group operations.


The static configuration has the point symmetry C_3v.


Analysis of symmetry for dynamics (positions and initial velocities):
=====================================================================
 Subroutine PRICEL returns:
 Original cell was already a primitive cell.
 

 Routine SETGRP: Setting up the symmetry group for a 
 body centered cubic supercell.


 Subroutine GETGRP returns: Found  6 space group operations
 (whereof  6 operations were pure point group operations)
 out of a pool of 48 trial point group operations.


The dynamic configuration has the point symmetry C_3v.


 Subroutine INISYM returns: Found  6 space group operations
 (whereof  6 operations are pure point group operations),
 and found     1 'primitive' translations


----------------------------------------------------------------------------------------

                                     Primitive cell                                     

  volume of cell :     168.0433

  direct lattice vectors                    reciprocal lattice vectors
    -3.476325100  3.476325100  3.476325100    -0.000000000  0.143830046  0.143830046
     3.476325100 -3.476325100  3.476325100     0.143830046 -0.000000000  0.143830046
     3.476325100  3.476325100 -3.476325100     0.143830046  0.143830046 -0.000000000

  length of vectors
     6.021171697  6.021171697  6.021171697     0.203406402  0.203406402  0.203406402

  position of ions in fractional coordinates (direct lattice)
     0.091781563  0.333502338  0.517058243
     0.517058243  0.091781563  0.333502338
     0.275337468  0.850053567  0.850053567
     0.517058243  0.333502338  0.091781563
     0.333502338  0.091781563  0.517058243
     0.333502338  0.517058243  0.091781563
     0.908218437  0.666497662  0.666497662
     0.666497662  0.908218437  0.666497662
     0.850053567  0.275337468  0.850053567
     0.091781563  0.517058243  0.333502338
     0.850053567  0.850053567  0.275337468
     0.666497662  0.666497662  0.908218437
     0.091781563  0.334825575  0.334825575
     0.334825575  0.091781563  0.334825575
     0.091781563  0.848744713  0.848744713
     0.334825575  0.334825575  0.091781563
     0.848744713  0.091781563  0.848744713
     0.848744713  0.848744713  0.091781563
     0.341326693  0.341326693  0.341326693
     0.091781563  0.842229212  0.091781563
     0.091781563  0.091781563  0.842229212
     0.842229212  0.091781563  0.091781563

  ion indices of the primitive-cell ions
   primitive index   ion index
                 1           1
                 2           2
                 3           3
                 4           4
                 5           5
                 6           6
                 7           7
                 8           8
                 9           9
                10          10
                11          11
                12          12
                13          13
                14          14
                15          15
                16          16
                17          17
                18          18
                19          19
                20          20
                21          21
                22          22

----------------------------------------------------------------------------------------



 KPOINTS: auto                                    

Automatic generation of k-mesh.
 Grid dimensions read from file:
 generate k-points for:    5    5    5

 Generating k-lattice:

  Cartesian coordinates                     Fractional coordinates (reciprocal lattice)
    -0.000000000  0.028766009  0.028766009     0.200000000 -0.000000000  0.000000000
     0.028766009 -0.000000000  0.028766009    -0.000000000  0.200000000  0.000000000
     0.028766009  0.028766009 -0.000000000     0.000000000 -0.000000000  0.200000000

  Length of vectors
     0.040681280  0.040681280  0.040681280

  Shift w.r.t. Gamma in fractional coordinates (k-lattice)
     0.000000000  0.000000000  0.000000000

 
 Subroutine IBZKPT returns following result:
 ===========================================
 
 Found     19 irreducible k-points:
 
 Following reciprocal coordinates:
            Coordinates               Weight
  0.000000  0.000000  0.000000      1.000000
  0.200000  0.000000  0.000000      6.000000
  0.200000  0.000000 -0.200000      6.000000
  0.400000  0.000000  0.000000      6.000000
  0.400000  0.000000 -0.400000      6.000000
  0.200000  0.200000  0.000000      6.000000
  0.400000  0.000000 -0.200000     12.000000
  0.400000 -0.200000 -0.200000      6.000000
  0.400000  0.200000  0.000000     12.000000
 -0.400000  0.000000 -0.400000      6.000000
 -0.400000 -0.400000 -0.200000      6.000000
  0.200000  0.200000  0.200000      2.000000
 -0.400000 -0.200000 -0.200000      6.000000
 -0.200000  0.200000  0.200000      6.000000
 -0.400000  0.400000  0.200000     12.000000
  0.200000 -0.200000  0.400000     12.000000
 -0.400000 -0.400000  0.200000      6.000000
  0.400000  0.400000  0.400000      2.000000
 -0.400000  0.400000  0.400000      6.000000
 
 Following cartesian coordinates:
            Coordinates               Weight
  0.000000  0.000000  0.000000      1.000000
  0.000000  0.028766  0.028766      6.000000
 -0.028766  0.000000  0.028766      6.000000
  0.000000  0.057532  0.057532      6.000000
 -0.057532  0.000000  0.057532      6.000000
  0.028766  0.028766  0.057532      6.000000
 -0.028766  0.028766  0.057532     12.000000
 -0.057532  0.028766  0.028766      6.000000
  0.028766  0.057532  0.086298     12.000000
 -0.057532 -0.115064 -0.057532      6.000000
 -0.086298 -0.086298 -0.115064      6.000000
  0.057532  0.057532  0.057532      2.000000
 -0.057532 -0.086298 -0.086298      6.000000
  0.057532  0.000000  0.000000      6.000000
  0.086298 -0.028766  0.000000     12.000000
  0.028766  0.086298  0.000000     12.000000
 -0.028766 -0.028766 -0.115064      6.000000
  0.115064  0.115064  0.115064      2.000000
  0.115064  0.000000  0.000000      6.000000
 


--------------------------------------------------------------------------------------------------------




 Dimension of arrays:
   k-points           NKPTS =     19   k-points in BZ     NKDIM =     19   number of bands    NBANDS=    128
   number of dos      NEDOS =    301   number of ions     NIONS =     22
   non local maximal  LDIM  =      4   non local SUM 2l+1 LMDIM =      8
   total plane-waves  NPLWV = 262144
   max r-space proj   IRMAX =      1   max aug-charges    IRDMAX=  11278
   dimension x,y,z NGX =    64 NGY =   64 NGZ =   64
   dimension x,y,z NGXF=   128 NGYF=  128 NGZF=  128
   support grid    NGXF=   128 NGYF=  128 NGZF=  128
   ions per type =              12   6   4
   NGX,Y,Z   is equivalent  to a cutoff of  17.67, 17.67, 17.67 a.u.
   NGXF,Y,Z  is equivalent  to a cutoff of  35.34, 35.34, 35.34 a.u.

 SYSTEM =  unknown system                          
 POSCAR =   H  C  N                                

 Startparameter for this run:
   NWRITE =      2    write-flag & timer
   PREC   = accura    normal or accurate (medium, high low for compatibility)
   ISTART =      0    job   : 0-new  1-cont  2-samecut
   ICHARG =      2    charge: 1-file 2-atom 10-const
   ISPIN  =      1    spin polarized calculation?
   LNONCOLLINEAR =      F non collinear calculations
   LSORBIT =      F    spin-orbit coupling
   INIWAV =      1    electr: 0-lowe 1-rand  2-diag
   LASPH  =      F    aspherical Exc in radial PAW
 Electronic Relaxation 1
   ENCUT  = 1000.0 eV  73.50 Ry    8.57 a.u.  15.53 15.53 15.53*2*pi/ulx,y,z
   ENINI  = 1000.0     initial cutoff
   ENAUG  = 1000.0 eV  augmentation charge cutoff
   NELM   =     60;   NELMIN=  2; NELMDL= -5     # of ELM steps 
   EDIFF  = 0.1E-06   stopping-criterion for ELM
   LREAL  =      F    real-space projection
   NLSPLINE    = F    spline interpolate recip. space projectors
   LCOMPAT=      F    compatible to vasp.4.4
   GGA_COMPAT  = T    GGA compatible to vasp.4.4-vasp.4.6
   LMAXPAW     = -100 max onsite density
   LMAXMIX     =    2 max onsite mixed and CHGCAR
   VOSKOWN=      0    Vosko Wilk Nusair interpolation
   ROPT   =    0.00000   0.00000   0.00000
 Ionic relaxation
   EDIFFG = 0.1E-05   stopping-criterion for IOM
   NSW    =      0    number of steps for IOM
   NBLOCK =      1;   KBLOCK =      1    inner block; outer block 
   IBRION =     -1    ionic relax: 0-MD 1-quasi-New 2-CG
   NFREE  =      0    steps in history (QN), initial steepest desc. (CG)
   ISIF   =      0    stress and relaxation
   IWAVPR =     10    prediction:  0-non 1-charg 2-wave 3-comb
   ISYM   =      2    0-nonsym 1-usesym 2-fastsym
   LCORR  =      T    Harris-Foulkes like correction to forces

   POTIM  = 0.5000    time-step for ionic-motion
   TEIN   =    0.0    initial temperature
   TEBEG  =    0.0;   TEEND  =   0.0 temperature during run
   SMASS  =  -3.00    Nose mass-parameter (am)
   estimated Nose-frequenzy (Omega)   =  0.10E-29 period in steps = 0.13E+47 mass=  -0.829E-27a.u.
   SCALEE = 1.0000    scale energy and forces
   NPACO  =    256;   APACO  = 10.0  distance and # of slots for P.C.
   PSTRESS=    0.0 pullay stress

  Mass of Ions in am
   POMASS =   1.00 12.01 14.00
  Ionic Valenz
   ZVAL   =   1.00  4.00  5.00
  Atomic Wigner-Seitz radii
   RWIGS  =  -1.00 -1.00 -1.00
  virtual crystal weights 
   VCA    =   1.00  1.00  1.00
   NELECT =      56.0000    total number of electrons
   NUPDOWN=      -1.0000    fix difference up-down

 DOS related values:
   EMIN   =  10.00;   EMAX   =-10.00  energy-range for DOS
   EFERMI =   0.00;   METHOD = LEGACY      
   ISMEAR =     0;   SIGMA  =   0.01  broadening in eV -4-tet -1-fermi 0-gaus

 Electronic relaxation 2 (details)
   IALGO  =     58    algorithm
   LDIAG  =      T    sub-space diagonalisation (order eigenvalues)
   LSUBROT=      F    optimize rotation matrix (better conditioning)
   TURBO    =      0    0=normal 1=particle mesh
   IRESTART =      0    0=no restart 2=restart with 2 vectors
   NREBOOT  =      0    no. of reboots
   NMIN     =      0    reboot dimension
   EREF     =   0.00    reference energy to select bands
   IMIX   =      4    mixing-type and parameters
     AMIX     =   0.40;   BMIX     =  1.00
     AMIX_MAG =   1.60;   BMIX_MAG =  1.00
     AMIN     =   0.10
     WC   =   100.;   INIMIX=   1;  MIXPRE=   1;  MAXMIX= -45

 Intra band minimization:
   WEIMIN = 0.0000     energy-eigenvalue tresh-hold
   EBREAK =  0.20E-09  absolut break condition
   DEPER  =   0.30     relativ break condition  

   TIME   =   0.40     timestep for ELM

  volume/ion in A,a.u.               =       7.64        51.55
  Fermi-wavevector in a.u.,A,eV,Ry     =   1.135003  2.144845 17.527467  1.288232
  Thomas-Fermi vector in A             =   2.271708

 Write flags
   LWAVE        =      F    write WAVECAR
   LDOWNSAMPLE  =      F    k-point downsampling of WAVECAR
   LCHARG       =      T    write CHGCAR
   LVTOT        =      F    write LOCPOT, total local potential
   LVHAR        =      F    write LOCPOT, Hartree potential only
   LELF         =      F    write electronic localiz. function (ELF)
   LORBIT       =      0    0 simple, 1 ext, 2 COOP (PROOUT), +10 PAW based schemes


 Dipole corrections
   LMONO  =      F    monopole corrections only (constant potential shift)
   LDIPOL =      F    correct potential (dipole corrections)
   IDIPOL =      0    1-x, 2-y, 3-z, 4-all directions 
   EPSILON=  1.0000000 bulk dielectric constant

 Exchange correlation treatment:
   GGA     =    --    GGA type
   LEXCH   =     8    internal setting for exchange type
   LIBXC   =     F    Libxc                    
   VOSKOWN =     0    Vosko Wilk Nusair interpolation
   LHFCALC =     F    Hartree Fock is set to
   LHFONE  =     F    Hartree Fock one center treatment
   AEXX    =    0.0000 exact exchange contribution

 Linear response parameters
   LEPSILON=     F    determine dielectric tensor
   LRPA    =     F    only Hartree local field effects (RPA)
   LNABLA  =     F    use nabla operator in PAW spheres
   LVEL    =     F    velocity operator in full k-point grid
   CSHIFT  =0.1000    complex shift for real part using Kramers Kronig
   OMEGAMAX=  -1.0    maximum frequency
   DEG_THRESHOLD= 0.2000000E-02 threshold for treating states as degnerate
   RTIME   =   -0.100 relaxation time in fs
  (WPLASMAI=    0.000 imaginary part of plasma frequency in eV, 0.658/RTIME)
   DFIELD  = 0.0000000 0.0000000 0.0000000 field for delta impulse in time

  Optional k-point grid parameters
   LKPOINTS_OPT  =     F    use optional k-point grid
   KPOINTS_OPT_MODE=     1    mode for optional k-point grid

 Orbital magnetization related:
   ORBITALMAG=     F  switch on orbital magnetization
   LCHIMAG   =     F  perturbation theory with respect to B field
   DQ        =  0.001000  dq finite difference perturbation B field
   LLRAUG    =     F  two centre corrections for induced B field
   LBONE     =     F  B-component reconstruction in AE one-centre
   LVGVCALC  =     T  calculate vGv susceptibility
   LVGVAPPL  =     F  apply vGv susceptibility instead of pGv for G=0

 Random number generation:
   RANDOM_GENERATOR = DEFAULT
   PCG_SEED         = not used


--------------------------------------------------------------------------------------------------------


 Static calculation
 charge density and potential will be updated during run
 non-spin polarized calculation
 Conjugate gradient for all bands (Freysoldt, et al. PRB 79, 241103 (2009))
 preconditioned conjugated gradient                                        
 perform sub-space diagonalisation
    before iterative eigenvector-optimisation
 modified Broyden-mixing scheme, WC =      100.0
 initial mixing is a Kerker type mixing with AMIX =  0.4000 and BMIX =      1.0000
 Hartree-type preconditioning will be used
 using additional bands          100
 reciprocal scheme for non local part
 use partial core corrections
 no Harris-corrections to forces 
 use gradient corrections 
 use of overlap-Matrix (Vanderbilt PP)
 Gauss-broadening in eV      SIGMA  =   0.01


--------------------------------------------------------------------------------------------------------


  energy-cutoff  :     1000.00
  volume of cell :      168.04
      direct lattice vectors                 reciprocal lattice vectors
    -3.476325100  3.476325100  3.476325100    -0.000000000  0.143830046  0.143830046
     3.476325100 -3.476325100  3.476325100     0.143830046 -0.000000000  0.143830046
     3.476325100  3.476325100 -3.476325100     0.143830046  0.143830046 -0.000000000

  length of vectors
     6.021171697  6.021171697  6.021171697     0.203406402  0.203406402  0.203406402



 k-points in units of 2pi/SCALE and weight: auto                                    
   0.00000000  0.00000000  0.00000000       0.008
   0.00000000  0.02876601  0.02876601       0.048
  -0.02876601  0.00000000  0.02876601       0.048
   0.00000000  0.05753202  0.05753202       0.048
  -0.05753202  0.00000000  0.05753202       0.048
   0.02876601  0.02876601  0.05753202       0.048
  -0.02876601  0.02876601  0.05753202       0.096
  -0.05753202  0.02876601  0.02876601       0.048
   0.02876601  0.05753202  0.08629803       0.096
  -0.05753202 -0.11506404 -0.05753202       0.048
  -0.08629803 -0.08629803 -0.11506404       0.048
   0.05753202  0.05753202  0.05753202       0.016
  -0.05753202 -0.08629803 -0.08629803       0.048
   0.05753202  0.00000000  0.00000000       0.048
   0.08629803 -0.02876601  0.00000000       0.096
   0.02876601  0.08629803  0.00000000       0.096
  -0.02876601 -0.02876601 -0.11506404       0.048
   0.11506404  0.11506404  0.11506404       0.016
   0.11506404  0.00000000  0.00000000       0.048

 k-points in reciprocal lattice and weights: auto                                    
   0.00000000  0.00000000  0.00000000       0.008
   0.20000000  0.00000000  0.00000000       0.048
   0.20000000  0.00000000 -0.20000000       0.048
   0.40000000  0.00000000  0.00000000       0.048
   0.40000000  0.00000000 -0.40000000       0.048
   0.20000000  0.20000000  0.00000000       0.048
   0.40000000  0.00000000 -0.20000000       0.096
   0.40000000 -0.20000000 -0.20000000       0.048
   0.40000000  0.20000000  0.00000000       0.096
  -0.40000000  0.00000000 -0.40000000       0.048
  -0.40000000 -0.40000000 -0.20000000       0.048
   0.20000000  0.20000000  0.20000000       0.016
  -0.40000000 -0.20000000 -0.20000000       0.048
  -0.20000000  0.20000000  0.20000000       0.048
  -0.40000000  0.40000000  0.20000000       0.096
   0.20000000 -0.20000000  0.40000000       0.096
  -0.40000000 -0.40000000  0.20000000       0.048
   0.40000000  0.40000000  0.40000000       0.016
  -0.40000000  0.40000000  0.40000000       0.048

 position of ions in fractional coordinates (direct lattice) 
   0.09178156  0.33350234  0.51705824
   0.51705824  0.09178156  0.33350234
   0.27533747  0.85005357  0.85005357
   0.51705824  0.33350234  0.09178156
   0.33350234  0.09178156  0.51705824
   0.33350234  0.51705824  0.09178156
   0.90821844  0.66649766  0.66649766
   0.66649766  0.90821844  0.66649766
   0.85005357  0.27533747  0.85005357
   0.09178156  0.51705824  0.33350234
   0.85005357  0.85005357  0.27533747
   0.66649766  0.66649766  0.90821844
   0.09178156  0.33482557  0.33482557
   0.33482557  0.09178156  0.33482557
   0.09178156  0.84874471  0.84874471
   0.33482557  0.33482557  0.09178156
   0.84874471  0.09178156  0.84874471
   0.84874471  0.84874471  0.09178156
   0.34132669  0.34132669  0.34132669
   0.09178156  0.84222921  0.09178156
   0.09178156  0.09178156  0.84222921
   0.84222921  0.09178156  0.09178156

 position of ions in cartesian coordinates  (Angst):
   2.63776255  0.95716255 -0.31903745
  -0.31903745  2.63776255  0.95716255
   4.95296255  0.95716255  0.95716255
  -0.31903745  0.95716255  2.63776255
   0.95716255  2.63776255 -0.31903745
   0.95716255 -0.31903745  2.63776255
   1.47666255  3.15726255  3.15726255
   3.15726255  1.47666255  3.15726255
   0.95716255  4.95296255  0.95716255
   2.63776255 -0.31903745  0.95716255
   0.95716255  0.95716255  4.95296255
   3.15726255  3.15726255  1.47666255
   2.00886255  0.31906255  0.31906255
   0.31906255  2.00886255  0.31906255
   5.58196255  0.31906255  0.31906255
   0.31906255  0.31906255  2.00886255
   0.31906255  5.58196255  0.31906255
   0.31906255  0.31906255  5.58196255
   1.18656255  1.18656255  1.18656255
   2.92786255 -2.28973745  2.92786255
   2.92786255  2.92786255 -2.28973745
  -2.28973745  2.92786255  2.92786255



--------------------------------------------------------------------------------------------------------


 k-point   1 :   0.0000 0.0000 0.0000  plane waves:   12017
 k-point   2 :   0.2000 0.0000 0.0000  plane waves:   12071
 k-point   3 :   0.2000 0.0000-0.2000  plane waves:   12071
 k-point   4 :   0.4000 0.0000 0.0000  plane waves:   12080
 k-point   5 :   0.4000 0.0000-0.4000  plane waves:   12080
 k-point   6 :   0.2000 0.2000 0.0000  plane waves:   12053
 k-point   7 :   0.4000 0.0000-0.2000  plane waves:   12053
 k-point   8 :   0.4000-0.2000-0.2000  plane waves:   12053
 k-point   9 :   0.4000 0.2000 0.0000  plane waves:   12091
 k-point  10 :  -0.4000 0.0000-0.4000  plane waves:   12091
 k-point  11 :  -0.4000-0.4000-0.2000  plane waves:   12091
 k-point  12 :   0.2000 0.2000 0.2000  plane waves:   12085
 k-point  13 :  -0.4000-0.2000-0.2000  plane waves:   12085
 k-point  14 :  -0.2000 0.2000 0.2000  plane waves:   12102
 k-point  15 :  -0.4000 0.4000 0.2000  plane waves:   12062
 k-point  16 :   0.2000-0.2000 0.4000  plane waves:   12062
 k-point  17 :  -0.4000-0.4000 0.2000  plane waves:   12073
 k-point  18 :   0.4000 0.4000 0.4000  plane waves:   12073
 k-point  19 :  -0.4000 0.4000 0.4000  plane waves:   12014

 maximum and minimum number of plane-waves per node :      6070     5984

 maximum number of plane-waves:     12102
 maximum index in each direction: 
   IXMAX=   15   IYMAX=   15   IZMAX=   15
   IXMIN=  -15   IYMIN=  -15   IZMIN=  -15


 parallel 3D FFT for wavefunctions:
    minimum data exchange during FFTs selected (reduces bandwidth)
 parallel 3D FFT for charge:
    minimum data exchange during FFTs selected (reduces bandwidth)


 total amount of memory used by VASP MPI-rank0    71114. kBytes
=======================================================================

   base      :      30000. kBytes
   nonl-proj :      24576. kBytes
   fftplans  :       4451. kBytes
   grid      :       6336. kBytes
   one-center:         33. kBytes
   wavefun   :       5718. kBytes

     INWAV:  cpu time      0.0016: real time      0.0017
 Broyden mixing: mesh for mixing (old mesh)
   NGX = 31   NGY = 31   NGZ = 31
  (NGX  =128   NGY  =128   NGZ  =128)
  gives a total of  29791 points

 initial charge density was supplied:
 charge density of overlapping atoms calculated
 number of electron      56.0000000 magnetization 
 keeping initial charge density in first step


--------------------------------------------------------------------------------------------------------


 Maximum index for augmentation-charges          217 (set IRDMAX)


--------------------------------------------------------------------------------------------------------


 First call to EWALD:  gamma=   0.321
 Maximum number of real-space cells 3x 3x 3
 Maximum number of reciprocal cells 3x 3x 3

    FEWALD:  cpu time      0.0020: real time      0.0021


--------------------------------------- Ionic step        1  -------------------------------------------




--------------------------------------- Iteration      1(   1)  ---------------------------------------


    POTLOK:  cpu time      0.0499: real time      0.0508
    SETDIJ:  cpu time      0.0077: real time      0.0079
    TRIAL :  cpu time     10.6615: real time     10.6666
    CORREC:  cpu time      0.0010: real time      0.0010
    --------------------------------------------
      LOOP:  cpu time     10.7265: real time     10.7326

 eigenvalue-minimisations  :  4864
 total energy-change (2. order) : 0.6279975E+02  (-0.5685965E+04)
 number of electron      56.0000000 magnetization 
 augmentation part       56.0000000 magnetization 

 Free energy of the ion-electron system (eV)
  ---------------------------------------------------
  alpha Z        PSCENC =        56.89320909
  Ewald energy   TEWEN  =      -822.09389158
  -Hartree energ DENC   =     -1122.58246755
  -exchange      EXHF   =         0.00000000
  -V(xc)+E(xc)   XCENC  =       141.95572016
  PAW double counting   =      1525.30504351    -1488.52757300
  entropy T*S    EENTRO =        -0.00018069
  eigenvalues    EBANDS =      -319.08289075
  atomic energy  EATOM  =      2090.93278114
  ---------------------------------------------------
  free energy    TOTEN  =        62.79975031 eV

  energy without entropy =       62.79993101  energy(sigma->0) =       62.79984066


--------------------------------------------------------------------------------------------------------




--------------------------------------- Iteration      1(   2)  ---------------------------------------


    TRIAL :  cpu time     29.1800: real time     29.1989
    CORREC:  cpu time      0.0003: real time      0.0003
    --------------------------------------------
      LOOP:  cpu time     29.1938: real time     29.2273

 eigenvalue-minimisations  :  7296
 total energy-change (2. order) :-0.1993856E+03  (-0.1987631E+03)
 number of electron      56.0000000 magnetization 
 augmentation part       56.0000000 magnetization 

 Free energy of the ion-electron system (eV)
  ---------------------------------------------------
  alpha Z        PSCENC =        56.89320909
  Ewald energy   TEWEN  =      -822.09389158
  -Hartree energ DENC   =     -1122.58246755
  -exchange      EXHF   =         0.00000000
  -V(xc)+E(xc)   XCENC  =       141.95572016
  PAW double counting   =      1525.30504351    -1488.52757300
  entropy T*S    EENTRO =        -0.00000000
  eigenvalues    EBANDS =      -518.46870561
  atomic energy  EATOM  =      2090.93278114
  ---------------------------------------------------
  free energy    TOTEN  =      -136.58588386 eV

  energy without entropy =     -136.58588386  energy(sigma->0) =     -136.58588386


--------------------------------------------------------------------------------------------------------




--------------------------------------- Iteration      1(   3)  ---------------------------------------


    TRIAL :  cpu time     11.3933: real time     11.3990
    CORREC:  cpu time      0.0003: real time      0.0003
    --------------------------------------------
      LOOP:  cpu time     11.4053: real time     11.4276

 eigenvalue-minimisations  :  4864
 total energy-change (2. order) :-0.2157835E+01  (-0.2157835E+01)
 number of electron      56.0000000 magnetization 
 augmentation part       56.0000000 magnetization 

 Free energy of the ion-electron system (eV)
  ---------------------------------------------------
  alpha Z        PSCENC =        56.89320909
  Ewald energy   TEWEN  =      -822.09389158
  -Hartree energ DENC   =     -1122.58246755
  -exchange      EXHF   =         0.00000000
  -V(xc)+E(xc)   XCENC  =       141.95572016
  PAW double counting   =      1525.30504351    -1488.52757300
  entropy T*S    EENTRO =        -0.00000000
  eigenvalues    EBANDS =      -520.62654030
  atomic energy  EATOM  =      2090.93278114
  ---------------------------------------------------
  free energy    TOTEN  =      -138.74371855 eV

  energy without entropy =     -138.74371855  energy(sigma->0) =     -138.74371855


--------------------------------------------------------------------------------------------------------




--------------------------------------- Iteration      1(   4)  ---------------------------------------


    TRIAL :  cpu time     61.5667: real time     61.5974
    CORREC:  cpu time      0.0003: real time      0.0003
    --------------------------------------------
      LOOP:  cpu time     61.5950: real time     61.6259

 eigenvalue-minimisations  :  9728
 total energy-change (2. order) :-0.3731502E-02  (-0.3731502E-02)
 number of electron      56.0000000 magnetization 
 augmentation part       56.0000000 magnetization 

 Free energy of the ion-electron system (eV)
  ---------------------------------------------------
  alpha Z        PSCENC =        56.89320909
  Ewald energy   TEWEN  =      -822.09389158
  -Hartree energ DENC   =     -1122.58246755
  -exchange      EXHF   =         0.00000000
  -V(xc)+E(xc)   XCENC  =       141.95572016
  PAW double counting   =      1525.30504351    -1488.52757300
  entropy T*S    EENTRO =        -0.00000000
  eigenvalues    EBANDS =      -520.63027181
  atomic energy  EATOM  =      2090.93278114
  ---------------------------------------------------
  free energy    TOTEN  =      -138.74745005 eV

  energy without entropy =     -138.74745005  energy(sigma->0) =     -138.74745005


--------------------------------------------------------------------------------------------------------




--------------------------------------- Iteration      1(   5)  ---------------------------------------


    TRIAL :  cpu time     11.2356: real time     11.2409
    CORREC:  cpu time      0.0003: real time      0.0003
    CHARGE:  cpu time      0.1043: real time      0.1051
    --------------------------------------------
      LOOP:  cpu time     11.3520: real time     11.3754

 eigenvalue-minimisations  :  4864
 total energy-change (2. order) :-0.7443305E-08  (-0.7446718E-08)
 number of electron      56.0000000 magnetization 
 augmentation part       -0.0609102 magnetization 

 Free energy of the ion-electron system (eV)
  ---------------------------------------------------
  alpha Z        PSCENC =        56.89320909
  Ewald energy   TEWEN  =      -822.09389158
  -Hartree energ DENC   =     -1122.58246755
  -exchange      EXHF   =         0.00000000
  -V(xc)+E(xc)   XCENC  =       141.95572016
  PAW double counting   =      1525.30504351    -1488.52757300
  entropy T*S    EENTRO =        -0.00000000
  eigenvalues    EBANDS =      -520.63027181
  atomic energy  EATOM  =      2090.93278114
  ---------------------------------------------------
  free energy    TOTEN  =      -138.74745006 eV

  energy without entropy =     -138.74745006  energy(sigma->0) =     -138.74745006


--------------------------------------------------------------------------------------------------------




--------------------------------------- Iteration      1(   6)  ---------------------------------------


    POTLOK:  cpu time      0.0187: real time      0.0188
    SETDIJ:  cpu time      0.0020: real time      0.0020
    TRIAL :  cpu time      1.4127: real time      1.4150
    CORREC:  cpu time      0.7086: real time      0.7098
    CHARGE:  cpu time      0.0727: real time      0.0727
    --------------------------------------------
      LOOP:  cpu time      2.2269: real time      2.2467

 eigenvalue-minimisations  :     0
 total energy-change (2. order) : 0.1531960E+02  (-0.6367177E+01)
 number of electron      56.0000000 magnetization 
 augmentation part       -0.0913969 magnetization 

 Free energy of the ion-electron system (eV)
  ---------------------------------------------------
  alpha Z        PSCENC =        56.89320909
  Ewald energy   TEWEN  =      -822.09389158
  -Hartree energ DENC   =     -1404.00350993
  -exchange      EXHF   =         0.00000000
  -V(xc)+E(xc)   XCENC  =       157.97406395
  PAW double counting   =     15319.87971944   -15285.01375075
  entropy T*S    EENTRO =        -0.00000000
  eigenvalues    EBANDS =      -237.99647255
  atomic energy  EATOM  =      2090.93278114
  ---------------------------------------------------
  free energy    TOTEN  =      -123.42785121 eV

  energy without entropy =     -123.42785121  energy(sigma->0) =     -123.42785121


--------------------------------------------------------------------------------------------------------




--------------------------------------- Iteration      1(   7)  ---------------------------------------


    POTLOK:  cpu time      0.0168: real time      0.0168
    SETDIJ:  cpu time      0.0020: real time      0.0020
    TRIAL :  cpu time      1.2805: real time      1.2808
    CORREC:  cpu time      0.6868: real time      0.6871
    CHARGE:  cpu time      0.0695: real time      0.0695
    --------------------------------------------
      LOOP:  cpu time      2.0852: real time      2.0862

 eigenvalue-minimisations  :     0
 total energy-change (2. order) :-0.6175128E+01  (-0.5892696E+00)
 number of electron      56.0000000 magnetization 
 augmentation part       -0.0903954 magnetization 

 Free energy of the ion-electron system (eV)
  ---------------------------------------------------
  alpha Z        PSCENC =        56.89320909
  Ewald energy   TEWEN  =      -822.09389158
  -Hartree energ DENC   =     -1266.37555318
  -exchange      EXHF   =         0.00000000
  -V(xc)+E(xc)   XCENC  =       152.48182435
  PAW double counting   =     24567.93049530   -24531.98032280
  entropy T*S    EENTRO =        -0.00000000
  eigenvalues    EBANDS =      -377.39152120
  atomic energy  EATOM  =      2090.93278114
  ---------------------------------------------------
  free energy    TOTEN  =      -129.60297890 eV

  energy without entropy =     -129.60297890  energy(sigma->0) =     -129.60297890


--------------------------------------------------------------------------------------------------------




--------------------------------------- Iteration      1(   8)  ---------------------------------------


    POTLOK:  cpu time      0.0163: real time      0.0163
    SETDIJ:  cpu time      0.0020: real time      0.0020
    TRIAL :  cpu time      1.2655: real time      1.2661
    CORREC:  cpu time      0.6868: real time      0.6873
    CHARGE:  cpu time      0.0701: real time      0.0701
    --------------------------------------------
      LOOP:  cpu time      2.0531: real time      2.0720

 eigenvalue-minimisations  :     0
 total energy-change (2. order) :-0.5916893E+00  (-0.6479773E-01)
 number of electron      56.0000000 magnetization 
 augmentation part       -0.0904470 magnetization 

 Free energy of the ion-electron system (eV)
  ---------------------------------------------------
  alpha Z        PSCENC =        56.89320909
  Ewald energy   TEWEN  =      -822.09389158
  -Hartree energ DENC   =     -1264.39679874
  -exchange      EXHF   =         0.00000000
  -V(xc)+E(xc)   XCENC  =       152.05778154
  PAW double counting   =     20018.06188629   -19982.21486726
  entropy T*S    EENTRO =        -0.00000000
  eigenvalues    EBANDS =      -379.43476863
  atomic energy  EATOM  =      2090.93278114
  ---------------------------------------------------
  free energy    TOTEN  =      -130.19466816 eV

  energy without entropy =     -130.19466816  energy(sigma->0) =     -130.19466816


--------------------------------------------------------------------------------------------------------




--------------------------------------- Iteration      1(   9)  ---------------------------------------


    POTLOK:  cpu time      0.0165: real time      0.0165
    SETDIJ:  cpu time      0.0020: real time      0.0020
    TRIAL :  cpu time      1.2606: real time      1.2611
    CORREC:  cpu time      0.6892: real time      0.6896
    CHARGE:  cpu time      0.0711: real time      0.0711
    --------------------------------------------
      LOOP:  cpu time      2.0519: real time      2.0699

 eigenvalue-minimisations  :     0
 total energy-change (2. order) :-0.6489651E-01  (-0.8896630E-02)
 number of electron      56.0000000 magnetization 
 augmentation part       -0.0919336 magnetization 

 Free energy of the ion-electron system (eV)
  ---------------------------------------------------
  alpha Z        PSCENC =        56.89320909
  Ewald energy   TEWEN  =      -822.09389158
  -Hartree energ DENC   =     -1266.28473377
  -exchange      EXHF   =         0.00000000
  -V(xc)+E(xc)   XCENC  =       151.95843130
  PAW double counting   =     19201.98018312   -19166.16682392
  entropy T*S    EENTRO =        -0.00000000
  eigenvalues    EBANDS =      -377.47872003
  atomic energy  EATOM  =      2090.93278114
  ---------------------------------------------------
  free energy    TOTEN  =      -130.25956467 eV

  energy without entropy =     -130.25956467  energy(sigma->0) =     -130.25956467


--------------------------------------------------------------------------------------------------------




--------------------------------------- Iteration      1(  10)  ---------------------------------------


    POTLOK:  cpu time      0.0163: real time      0.0163
    SETDIJ:  cpu time      0.0020: real time      0.0020
    TRIAL :  cpu time      1.2647: real time      1.2657
    CORREC:  cpu time      0.6851: real time      0.6855
    CHARGE:  cpu time      0.0702: real time      0.0702
    --------------------------------------------
      LOOP:  cpu time      2.0676: real time      2.0692

 eigenvalue-minimisations  :     0
 total energy-change (2. order) :-0.8901649E-02  (-0.8711735E-03)
 number of electron      56.0000000 magnetization 
 augmentation part       -0.0916423 magnetization 

 Free energy of the ion-electron system (eV)
  ---------------------------------------------------
  alpha Z        PSCENC =        56.89320909
  Ewald energy   TEWEN  =      -822.09389158
  -Hartree energ DENC   =     -1265.07974149
  -exchange      EXHF   =         0.00000000
  -V(xc)+E(xc)   XCENC  =       151.87677439
  PAW double counting   =     19524.44442565   -19488.61420363
  entropy T*S    EENTRO =        -0.00000000
  eigenvalues    EBANDS =      -378.62781988
  atomic energy  EATOM  =      2090.93278114
  ---------------------------------------------------
  free energy    TOTEN  =      -130.26846632 eV

  energy without entropy =     -130.26846632  energy(sigma->0) =     -130.26846632


--------------------------------------------------------------------------------------------------------




--------------------------------------- Iteration      1(  11)  ---------------------------------------


    POTLOK:  cpu time      0.0164: real time      0.0164
    SETDIJ:  cpu time      0.0020: real time      0.0020
    TRIAL :  cpu time      1.2649: real time      1.2655
    CORREC:  cpu time      0.6878: real time      0.6883
    CHARGE:  cpu time      0.0715: real time      0.0715
    --------------------------------------------
      LOOP:  cpu time      2.0542: real time      2.0731

 eigenvalue-minimisations  :     0
 total energy-change (2. order) :-0.8741994E-03  (-0.9621284E-04)
 number of electron      56.0000000 magnetization 
 augmentation part       -0.0915406 magnetization 

 Free energy of the ion-electron system (eV)
  ---------------------------------------------------
  alpha Z        PSCENC =        56.89320909
  Ewald energy   TEWEN  =      -822.09389158
  -Hartree energ DENC   =     -1265.23185756
  -exchange      EXHF   =         0.00000000
  -V(xc)+E(xc)   XCENC  =       151.86819596
  PAW double counting   =     19551.93295160   -19516.10262138
  entropy T*S    EENTRO =        -0.00000000
  eigenvalues    EBANDS =      -378.46810777
  atomic energy  EATOM  =      2090.93278114
  ---------------------------------------------------
  free energy    TOTEN  =      -130.26934051 eV

  energy without entropy =     -130.26934051  energy(sigma->0) =     -130.26934051


--------------------------------------------------------------------------------------------------------




--------------------------------------- Iteration      1(  12)  ---------------------------------------


    POTLOK:  cpu time      0.0164: real time      0.0164
    SETDIJ:  cpu time      0.0020: real time      0.0020
    TRIAL :  cpu time      1.2580: real time      1.2590
    CORREC:  cpu time      0.6951: real time      0.6956
    CHARGE:  cpu time      0.0778: real time      0.0779
    --------------------------------------------
      LOOP:  cpu time      2.0624: real time      2.0807

 eigenvalue-minimisations  :     0
 total energy-change (2. order) :-0.9711391E-04  (-0.1301137E-04)
 number of electron      56.0000000 magnetization 
 augmentation part       -0.0915674 magnetization 

 Free energy of the ion-electron system (eV)
  ---------------------------------------------------
  alpha Z        PSCENC =        56.89320909
  Ewald energy   TEWEN  =      -822.09389158
  -Hartree energ DENC   =     -1265.12261159
  -exchange      EXHF   =         0.00000000
  -V(xc)+E(xc)   XCENC  =       151.86120733
  PAW double counting   =     19540.13325340   -19504.30290054
  entropy T*S    EENTRO =        -0.00000000
  eigenvalues    EBANDS =      -378.57048487
  atomic energy  EATOM  =      2090.93278114
  ---------------------------------------------------
  free energy    TOTEN  =      -130.26943763 eV

  energy without entropy =     -130.26943763  energy(sigma->0) =     -130.26943763


--------------------------------------------------------------------------------------------------------




--------------------------------------- Iteration      1(  13)  ---------------------------------------


    POTLOK:  cpu time      0.0166: real time      0.0166
    SETDIJ:  cpu time      0.0020: real time      0.0020
    TRIAL :  cpu time      1.2589: real time      1.2598
    CORREC:  cpu time      0.6861: real time      0.6865
    CHARGE:  cpu time      0.0707: real time      0.0707
    --------------------------------------------
      LOOP:  cpu time      2.0466: real time      2.0650

 eigenvalue-minimisations  :     0
 total energy-change (2. order) :-0.1272967E-04  (-0.1447427E-05)
 number of electron      56.0000000 magnetization 
 augmentation part       -0.0915812 magnetization 

 Free energy of the ion-electron system (eV)
  ---------------------------------------------------
  alpha Z        PSCENC =        56.89320909
  Ewald energy   TEWEN  =      -822.09389158
  -Hartree energ DENC   =     -1265.10606791
  -exchange      EXHF   =         0.00000000
  -V(xc)+E(xc)   XCENC  =       151.86081380
  PAW double counting   =     19539.84413038   -19504.01389257
  entropy T*S    EENTRO =        -0.00000000
  eigenvalues    EBANDS =      -378.58653270
  atomic energy  EATOM  =      2090.93278114
  ---------------------------------------------------
  free energy    TOTEN  =      -130.26945036 eV

  energy without entropy =     -130.26945036  energy(sigma->0) =     -130.26945036


--------------------------------------------------------------------------------------------------------




--------------------------------------- Iteration      1(  14)  ---------------------------------------


    POTLOK:  cpu time      0.0164: real time      0.0164
    SETDIJ:  cpu time      0.0020: real time      0.0020
    TRIAL :  cpu time      1.2634: real time      1.2642
    CORREC:  cpu time      0.6848: real time      0.6853
    CHARGE:  cpu time      0.0788: real time      0.0788
    --------------------------------------------
      LOOP:  cpu time      2.0594: real time      2.0765

 eigenvalue-minimisations  :     0
 total energy-change (2. order) :-0.1360801E-05  (-0.6702656E-07)
 number of electron      56.0000000 magnetization 
 augmentation part       -0.0915793 magnetization 

 Free energy of the ion-electron system (eV)
  ---------------------------------------------------
  alpha Z        PSCENC =        56.89320909
  Ewald energy   TEWEN  =      -822.09389158
  -Hartree energ DENC   =     -1265.11618676
  -exchange      EXHF   =         0.00000000
  -V(xc)+E(xc)   XCENC  =       151.86085979
  PAW double counting   =     19542.60656714   -19506.77629997
  entropy T*S    EENTRO =        -0.00000000
  eigenvalues    EBANDS =      -378.57649055
  atomic energy  EATOM  =      2090.93278114
  ---------------------------------------------------
  free energy    TOTEN  =      -130.26945172 eV

  energy without entropy =     -130.26945172  energy(sigma->0) =     -130.26945172


--------------------------------------------------------------------------------------------------------




--------------------------------------- Iteration      1(  15)  ---------------------------------------


    POTLOK:  cpu time      0.0164: real time      0.0164
    SETDIJ:  cpu time      0.0020: real time      0.0020
    TRIAL :  cpu time      1.2581: real time      1.2594
    CORREC:  cpu time      0.6863: real time      0.6864
    EDDIAG:  cpu time      0.6704: real time      0.6712
    CHARGE:  cpu time      0.0707: real time      0.0707
    --------------------------------------------
      LOOP:  cpu time      2.7329: real time      2.7355

 eigenvalue-minimisations  :     0
 total energy-change (2. order) :-0.6749906E-07  (-0.1220931E-07)
 number of electron      56.0000000 magnetization 
 augmentation part       -0.0915780 magnetization 

 Free energy of the ion-electron system (eV)
  ---------------------------------------------------
  alpha Z        PSCENC =        56.89320909
  Ewald energy   TEWEN  =      -822.09389158
  -Hartree energ DENC   =     -1265.11394155
  -exchange      EXHF   =         0.00000000
  -V(xc)+E(xc)   XCENC  =       151.86077592
  PAW double counting   =     19542.23035863   -19506.40008234
  entropy T*S    EENTRO =        -0.00000000
  eigenvalues    EBANDS =      -378.57866108
  atomic energy  EATOM  =      2090.93278114
  ---------------------------------------------------
  free energy    TOTEN  =      -130.26945179 eV

  energy without entropy =     -130.26945179  energy(sigma->0) =     -130.26945179


--------------------------------------------------------------------------------------------------------


  average scaling for gradient   1.2850


 average (electrostatic) potential at core
  the test charge radii are     0.4325  0.5770  0.5902
  (the norm of the test charge is              1.0000)
       1 -38.9253       2 -38.9253       3 -38.9247       4 -38.9253       5 -38.9253
       6 -38.9253       7 -38.9246       8 -38.9246       9 -38.9247      10 -38.9253
      11 -38.9247      12 -38.9246      13 -81.1202      14 -81.1202      15 -81.1203
      16 -81.1202      17 -81.1203      18 -81.1203      19 -97.4638      20 -97.4638
      21 -97.4638      22 -97.4638



 E-fermi :   1.2810     XC(G=0):  -8.5768     alpha+bet : -7.9003

 Fermi energy:         1.2810299969

 k-point     1 :       0.0000    0.0000    0.0000
  band No.  band energies     occupation 
      1     -19.4268      2.00000
      2     -16.2912      2.00000
      3     -16.2912      2.00000
      4     -16.2911      2.00000
      5     -11.4610      2.00000
      6     -11.4610      2.00000
      7     -10.1095      2.00000
      8     -10.1095      2.00000
      9     -10.1093      2.00000
     10      -8.4434      2.00000
     11      -5.8938      2.00000
     12      -5.8935      2.00000
     13      -5.8935      2.00000
     14      -5.7835      2.00000
     15      -5.7835      2.00000
     16      -5.7834      2.00000
     17      -3.4304      2.00000
     18      -3.4304      2.00000
     19      -2.8715      2.00000
     20      -2.8715      2.00000
     21      -2.8712      2.00000
     22      -2.6630      2.00000
     23      -2.6625      2.00000
     24      -2.6625      2.00000
     25      -2.4942      2.00000
     26       0.5003      2.00000
     27       0.5003      2.00000
     28       0.5005      2.00000
     29       5.7208      0.00000
     30       7.4389      0.00000
     31       7.4389      0.00000
     32       7.4392      0.00000
     33       8.3425      0.00000
     34       8.9120      0.00000
     35       8.9125      0.00000
     36       8.9125      0.00000
     37       9.9621      0.00000
     38       9.9621      0.00000
     39      10.2563      0.00000
     40      10.2563      0.00000
     41      10.2563      0.00000
     42      10.3403      0.00000
     43      10.3403      0.00000
     44      10.8836      0.00000
     45      10.8838      0.00000
     46      10.8838      0.00000
     47      12.9163      0.00000
     48      12.9163      0.00000
     49      12.9165      0.00000
     50      12.9417      0.00000
     51      12.9422      0.00000
     52      12.9422      0.00000
     53      13.2694      0.00000
     54      13.2694      0.00000
     55      16.0296      0.00000
     56      16.0297      0.00000
     57      16.0297      0.00000
     58      16.4870      0.00000
     59      16.4870      0.00000
     60      16.4875      0.00000
     61      16.8767      0.00000
     62      17.2339      0.00000
     63      17.2339      0.00000
     64      17.8947      0.00000
     65      17.8947      0.00000
     66      17.8948      0.00000
     67      18.7270      0.00000
     68      19.7457      0.00000
     69      19.7457      0.00000
     70      19.7459      0.00000
     71      19.8873      0.00000
     72      19.8873      0.00000
     73      19.8874      0.00000
     74      20.2047      0.00000
     75      22.2308      0.00000
     76      22.2308      0.00000
     77      23.3807      0.00000
     78      23.3807      0.00000
     79      23.3807      0.00000
     80      24.4819      0.00000
     81      24.4819      0.00000
     82      24.4820      0.00000
     83      24.8372      0.00000
     84      25.6484      0.00000
     85      26.0007      0.00000
     86      26.0009      0.00000
     87      26.0009      0.00000
     88      26.2940      0.00000
     89      26.2940      0.00000
     90      26.6993      0.00000
     91      26.6994      0.00000
     92      26.6994      0.00000
     93      27.2008      0.00000
     94      27.8609      0.00000
     95      27.8610      0.00000
     96      27.8610      0.00000
     97      28.1579      0.00000
     98      28.1579      0.00000
     99      28.1579      0.00000
    100      29.0485      0.00000
    101      29.0485      0.00000
    102      29.0485      0.00000
    103      29.6077      0.00000
    104      29.6077      0.00000
    105      29.6079      0.00000
    106      30.8874      0.00000
    107      30.8874      0.00000
    108      31.6784      0.00000
    109      31.6785      0.00000
    110      31.6785      0.00000
    111      32.2859      0.00000
    112      32.2859      0.00000
    113      33.1799      0.00000
    114      34.1504      0.00000
    115      34.1505      0.00000
    116      34.1505      0.00000
    117      35.7133      0.00000
    118      35.7134      0.00000
    119      35.7134      0.00000
    120      35.9295      0.00000
    121      35.9296      0.00000
    122      35.9310      0.00000
    123      37.2556      0.00000
    124      37.2557      0.00000
    125      37.2558      0.00000
    126      37.7915      0.00000
    127      37.7946      0.00000
    128      37.8403      0.00000

 k-point     2 :       0.2000    0.0000    0.0000
  band No.  band energies     occupation 
      1     -19.4152      2.00000
      2     -16.3191      2.00000
      3     -16.2997      2.00000
      4     -16.2944      2.00000
      5     -11.4713      2.00000
      6     -11.4265      2.00000
      7     -10.1433      2.00000
      8     -10.1264      2.00000
      9     -10.0886      2.00000
     10      -8.2341      2.00000
     11      -6.0117      2.00000
     12      -5.9191      2.00000
     13      -5.8597      2.00000
     14      -5.8486      2.00000
     15      -5.7732      2.00000
     16      -5.7089      2.00000
     17      -3.3875      2.00000
     18      -3.2322      2.00000
     19      -3.2107      2.00000
     20      -3.0421      2.00000
     21      -2.8898      2.00000
     22      -2.6971      2.00000
     23      -2.6851      2.00000
     24      -2.6653      2.00000
     25      -2.5037      2.00000
     26       0.4845      2.00000
     27       0.6101      2.00000
     28       0.7255      2.00000
     29       6.0122      0.00000
     30       6.8927      0.00000
     31       6.9954      0.00000
     32       7.5833      0.00000
     33       8.2205      0.00000
     34       8.9736      0.00000
     35       9.0340      0.00000
     36       9.4755      0.00000
     37       9.5106      0.00000
     38       9.6284      0.00000
     39      10.1294      0.00000
     40      10.1452      0.00000
     41      10.3326      0.00000
     42      10.3942      0.00000
     43      10.6722      0.00000
     44      10.9507      0.00000
     45      11.3527      0.00000
     46      11.8330      0.00000
     47      12.5399      0.00000
     48      12.6551      0.00000
     49      12.8478      0.00000
     50      12.8937      0.00000
     51      12.9303      0.00000
     52      13.0280      0.00000
     53      13.4472      0.00000
     54      13.6909      0.00000
     55      15.4488      0.00000
     56      15.4895      0.00000
     57      15.8541      0.00000
     58      15.9478      0.00000
     59      16.0141      0.00000
     60      16.1591      0.00000
     61      16.5736      0.00000
     62      17.1489      0.00000
     63      17.4659      0.00000
     64      17.6068      0.00000
     65      18.4953      0.00000
     66      18.6065      0.00000
     67      19.4641      0.00000
     68      19.5108      0.00000
     69      19.9064      0.00000
     70      20.1832      0.00000
     71      20.2388      0.00000
     72      20.4990      0.00000
     73      20.9797      0.00000
     74      21.0792      0.00000
     75      21.9188      0.00000
     76      21.9817      0.00000
     77      22.2373      0.00000
     78      23.0431      0.00000
     79      23.5255      0.00000
     80      23.5821      0.00000
     81      24.0817      0.00000
     82      24.1185      0.00000
     83      24.2410      0.00000
     84      24.5854      0.00000
     85      25.1581      0.00000
     86      25.2090      0.00000
     87      25.6805      0.00000
     88      25.7462      0.00000
     89      26.1275      0.00000
     90      26.2456      0.00000
     91      26.4893      0.00000
     92      27.1251      0.00000
     93      27.4334      0.00000
     94      27.4421      0.00000
     95      28.0497      0.00000
     96      28.0740      0.00000
     97      28.6010      0.00000
     98      29.0465      0.00000
     99      29.0711      0.00000
    100      29.1704      0.00000
    101      29.6926      0.00000
    102      29.7552      0.00000
    103      29.9605      0.00000
    104      30.5059      0.00000
    105      30.7283      0.00000
    106      31.5041      0.00000
    107      31.8293      0.00000
    108      31.9509      0.00000
    109      32.2215      0.00000
    110      32.2400      0.00000
    111      32.6271      0.00000
    112      32.7132      0.00000
    113      32.8172      0.00000
    114      33.5695      0.00000
    115      33.9930      0.00000
    116      34.0989      0.00000
    117      34.8103      0.00000
    118      34.9667      0.00000
    119      35.1163      0.00000
    120      35.2368      0.00000
    121      35.6680      0.00000
    122      36.3708      0.00000
    123      36.3982      0.00000
    124      37.0059      0.00000
    125      37.0833      0.00000
    126      37.2566      0.00000
    127      37.2738      0.00000
    128      37.6795      0.00000

 k-point     3 :       0.2000    0.0000   -0.2000
  band No.  band energies     occupation 
      1     -19.4152      2.00000
      2     -16.3192      2.00000
      3     -16.2997      2.00000
      4     -16.2943      2.00000
      5     -11.4713      2.00000
      6     -11.4265      2.00000
      7     -10.1432      2.00000
      8     -10.1265      2.00000
      9     -10.0886      2.00000
     10      -8.2341      2.00000
     11      -6.0116      2.00000
     12      -5.9191      2.00000
     13      -5.8598      2.00000
     14      -5.8485      2.00000
     15      -5.7733      2.00000
     16      -5.7090      2.00000
     17      -3.3875      2.00000
     18      -3.2322      2.00000
     19      -3.2109      2.00000
     20      -3.0422      2.00000
     21      -2.8896      2.00000
     22      -2.6971      2.00000
     23      -2.6847      2.00000
     24      -2.6656      2.00000
     25      -2.5036      2.00000
     26       0.4847      2.00000
     27       0.6101      2.00000
     28       0.7253      2.00000
     29       6.0122      0.00000
     30       6.8928      0.00000
     31       6.9953      0.00000
     32       7.5831      0.00000
     33       8.2205      0.00000
     34       8.9735      0.00000
     35       9.0342      0.00000
     36       9.4756      0.00000
     37       9.5104      0.00000
     38       9.6285      0.00000
     39      10.1294      0.00000
     40      10.1453      0.00000
     41      10.3327      0.00000
     42      10.3942      0.00000
     43      10.6722      0.00000
     44      10.9507      0.00000
     45      11.3527      0.00000
     46      11.8329      0.00000
     47      12.5402      0.00000
     48      12.6550      0.00000
     49      12.8479      0.00000
     50      12.8935      0.00000
     51      12.9300      0.00000
     52      13.0280      0.00000
     53      13.4472      0.00000
     54      13.6910      0.00000
     55      15.4488      0.00000
     56      15.4894      0.00000
     57      15.8542      0.00000
     58      15.9477      0.00000
     59      16.0141      0.00000
     60      16.1590      0.00000
     61      16.5736      0.00000
     62      17.1490      0.00000
     63      17.4661      0.00000
     64      17.6069      0.00000
     65      18.4953      0.00000
     66      18.6065      0.00000
     67      19.4640      0.00000
     68      19.5106      0.00000
     69      19.9064      0.00000
     70      20.1832      0.00000
     71      20.2388      0.00000
     72      20.4992      0.00000
     73      20.9797      0.00000
     74      21.0792      0.00000
     75      21.9187      0.00000
     76      21.9817      0.00000
     77      22.2373      0.00000
     78      23.0431      0.00000
     79      23.5255      0.00000
     80      23.5821      0.00000
     81      24.0818      0.00000
     82      24.1187      0.00000
     83      24.2410      0.00000
     84      24.5854      0.00000
     85      25.1582      0.00000
     86      25.2091      0.00000
     87      25.6805      0.00000
     88      25.7461      0.00000
     89      26.1274      0.00000
     90      26.2456      0.00000
     91      26.4893      0.00000
     92      27.1251      0.00000
     93      27.4335      0.00000
     94      27.4421      0.00000
     95      28.0496      0.00000
     96      28.0740      0.00000
     97      28.6009      0.00000
     98      29.0465      0.00000
     99      29.0711      0.00000
    100      29.1705      0.00000
    101      29.6926      0.00000
    102      29.7552      0.00000
    103      29.9606      0.00000
    104      30.5059      0.00000
    105      30.7284      0.00000
    106      31.5041      0.00000
    107      31.8294      0.00000
    108      31.9509      0.00000
    109      32.2215      0.00000
    110      32.2399      0.00000
    111      32.6270      0.00000
    112      32.7131      0.00000
    113      32.8172      0.00000
    114      33.5695      0.00000
    115      33.9930      0.00000
    116      34.0988      0.00000
    117      34.8102      0.00000
    118      34.9666      0.00000
    119      35.1164      0.00000
    120      35.2369      0.00000
    121      35.6680      0.00000
    122      36.3708      0.00000
    123      36.3984      0.00000
    124      37.0055      0.00000
    125      37.0834      0.00000
    126      37.2566      0.00000
    127      37.2738      0.00000
    128      37.6843      0.00000

 k-point     4 :       0.4000    0.0000    0.0000
  band No.  band energies     occupation 
      1     -19.3960      2.00000
      2     -16.3645      2.00000
      3     -16.3135      2.00000
      4     -16.2995      2.00000
      5     -11.4885      2.00000
      6     -11.3666      2.00000
      7     -10.2010      2.00000
      8     -10.1433      2.00000
      9     -10.0561      2.00000
     10      -7.8423      2.00000
     11      -6.2418      2.00000
     12      -6.1060      2.00000
     13      -5.8167      2.00000
     14      -5.7594      2.00000
     15      -5.6864      2.00000
     16      -5.6294      2.00000
     17      -3.7623      2.00000
     18      -3.3789      2.00000
     19      -3.2565      2.00000
     20      -3.0458      2.00000
     21      -2.8270      2.00000
     22      -2.7601      2.00000
     23      -2.7172      2.00000
     24      -2.6634      2.00000
     25      -2.4901      2.00000
     26       0.4570      2.00000
     27       0.7383      2.00000
     28       1.0911      2.00000
     29       6.0858      0.00000
     30       6.5384      0.00000
     31       6.9653      0.00000
     32       7.5962      0.00000
     33       8.1380      0.00000
     34       8.7026      0.00000
     35       8.7771      0.00000
     36       9.1020      0.00000
     37       9.6644      0.00000
     38       9.9401      0.00000
     39      10.0175      0.00000
     40      10.1825      0.00000
     41      10.3636      0.00000
     42      10.9133      0.00000
     43      11.2935      0.00000
     44      11.4838      0.00000
     45      11.5587      0.00000
     46      11.7287      0.00000
     47      12.1799      0.00000
     48      12.4058      0.00000
     49      12.5689      0.00000
     50      13.0778      0.00000
     51      13.1774      0.00000
     52      13.2658      0.00000
     53      13.8184      0.00000
     54      13.9798      0.00000
     55      14.5691      0.00000
     56      14.9324      0.00000
     57      15.1023      0.00000
     58      15.5597      0.00000
     59      15.9331      0.00000
     60      16.4474      0.00000
     61      16.5809      0.00000
     62      17.0702      0.00000
     63      17.7033      0.00000
     64      18.4345      0.00000
     65      18.8367      0.00000
     66      19.1740      0.00000
     67      19.4176      0.00000
     68      19.9834      0.00000
     69      20.0244      0.00000
     70      20.3947      0.00000
     71      20.5610      0.00000
     72      20.7339      0.00000
     73      20.9299      0.00000
     74      20.9368      0.00000
     75      21.2285      0.00000
     76      22.0035      0.00000
     77      22.1466      0.00000
     78      22.7986      0.00000
     79      22.8639      0.00000
     80      22.9187      0.00000
     81      23.0970      0.00000
     82      23.8513      0.00000
     83      23.8521      0.00000
     84      24.1190      0.00000
     85      24.8899      0.00000
     86      25.0380      0.00000
     87      25.2779      0.00000
     88      25.8635      0.00000
     89      25.8686      0.00000
     90      26.3070      0.00000
     91      26.4648      0.00000
     92      26.8603      0.00000
     93      27.1878      0.00000
     94      27.4317      0.00000
     95      27.7546      0.00000
     96      28.8349      0.00000
     97      29.2421      0.00000
     98      29.4464      0.00000
     99      29.7072      0.00000
    100      29.9122      0.00000
    101      30.2630      0.00000
    102      30.3987      0.00000
    103      30.7751      0.00000
    104      30.9175      0.00000
    105      31.2884      0.00000
    106      31.3913      0.00000
    107      31.7086      0.00000
    108      32.2436      0.00000
    109      32.2656      0.00000
    110      32.9843      0.00000
    111      33.0272      0.00000
    112      33.5313      0.00000
    113      33.5609      0.00000
    114      33.6329      0.00000
    115      33.8196      0.00000
    116      34.1199      0.00000
    117      34.2477      0.00000
    118      34.8601      0.00000
    119      34.8655      0.00000
    120      35.0059      0.00000
    121      35.5492      0.00000
    122      35.6347      0.00000
    123      36.3033      0.00000
    124      36.3727      0.00000
    125      36.9944      0.00000
    126      37.0434      0.00000
    127      37.5877      0.00000
    128      37.7723      0.00000

 k-point     5 :       0.4000    0.0000   -0.4000
  band No.  band energies     occupation 
      1     -19.3960      2.00000
      2     -16.3646      2.00000
      3     -16.3135      2.00000
      4     -16.2995      2.00000
      5     -11.4885      2.00000
      6     -11.3666      2.00000
      7     -10.2009      2.00000
      8     -10.1434      2.00000
      9     -10.0560      2.00000
     10      -7.8423      2.00000
     11      -6.2417      2.00000
     12      -6.1060      2.00000
     13      -5.8167      2.00000
     14      -5.7593      2.00000
     15      -5.6864      2.00000
     16      -5.6295      2.00000
     17      -3.7625      2.00000
     18      -3.3790      2.00000
     19      -3.2565      2.00000
     20      -3.0457      2.00000
     21      -2.8270      2.00000
     22      -2.7601      2.00000
     23      -2.7167      2.00000
[...]
     72      20.6938      0.00000
     73      20.6938      0.00000
     74      20.7373      0.00000
     75      21.2430      0.00000
     76      21.7921      0.00000
     77      21.7922      0.00000
     78      22.5212      0.00000
     79      22.5212      0.00000
     80      22.6831      0.00000
     81      23.6586      0.00000
     82      24.2558      0.00000
     83      24.2558      0.00000
     84      24.8806      0.00000
     85      25.2071      0.00000
     86      25.2071      0.00000
     87      25.2768      0.00000
     88      26.1070      0.00000
     89      26.1071      0.00000
     90      26.1989      0.00000
     91      27.7134      0.00000
     92      27.7135      0.00000
     93      27.7373      0.00000
     94      28.2975      0.00000
     95      28.5674      0.00000
     96      28.5674      0.00000
     97      28.8707      0.00000
     98      29.3592      0.00000
     99      29.3592      0.00000
    100      30.4491      0.00000
    101      30.4491      0.00000
    102      30.5646      0.00000
    103      30.7338      0.00000
    104      30.7338      0.00000
    105      30.9406      0.00000
    106      31.6945      0.00000
    107      32.0303      0.00000
    108      32.0303      0.00000
    109      32.0509      0.00000
    110      32.3103      0.00000
    111      32.3104      0.00000
    112      32.9870      0.00000
    113      32.9870      0.00000
    114      33.2483      0.00000
    115      34.1362      0.00000
    116      34.1363      0.00000
    117      34.2546      0.00000
    118      34.5632      0.00000
    119      34.5634      0.00000
    120      34.7976      0.00000
    121      35.5965      0.00000
    122      35.5965      0.00000
    123      35.7810      0.00000
    124      36.4394      0.00000
    125      36.4395      0.00000
    126      37.2646      0.00000
    127      37.2660      0.00000
    128      37.3255      0.00000

 k-point    18 :       0.4000    0.4000    0.4000
  band No.  band energies     occupation 
      1     -19.3819      2.00000
      2     -16.3470      2.00000
      3     -16.3470      2.00000
      4     -16.3166      2.00000
      5     -11.5393      2.00000
      6     -11.5393      2.00000
      7     -10.0683      2.00000
      8     -10.0237      2.00000
      9     -10.0237      2.00000
     10      -7.7634      2.00000
     11      -5.9553      2.00000
     12      -5.9522      2.00000
     13      -5.9522      2.00000
     14      -5.6367      2.00000
     15      -5.6367      2.00000
     16      -5.5971      2.00000
     17      -3.8002      2.00000
     18      -3.8002      2.00000
     19      -3.4717      2.00000
     20      -3.1748      2.00000
     21      -3.1748      2.00000
     22      -2.7636      2.00000
     23      -2.6664      2.00000
     24      -2.6664      2.00000
     25      -2.6503      2.00000
     26       0.8181      2.00000
     27       1.1350      2.00000
     28       1.1350      2.00000
     29       6.4036      0.00000
     30       6.7889      0.00000
     31       6.7889      0.00000
     32       7.3929      0.00000
     33       7.3929      0.00000
     34       8.0462      0.00000
     35       8.9051      0.00000
     36       8.9051      0.00000
     37       8.9537      0.00000
     38      10.4465      0.00000
     39      10.8256      0.00000
     40      10.8256      0.00000
     41      10.9080      0.00000
     42      10.9080      0.00000
     43      10.9471      0.00000
     44      11.1484      0.00000
     45      11.1484      0.00000
     46      11.9144      0.00000
     47      12.2012      0.00000
     48      12.2012      0.00000
     49      12.7690      0.00000
     50      13.2481      0.00000
     51      13.7933      0.00000
     52      13.7933      0.00000
     53      14.2796      0.00000
     54      14.2796      0.00000
     55      14.3322      0.00000
     56      14.9174      0.00000
     57      14.9174      0.00000
     58      15.5416      0.00000
     59      15.8300      0.00000
     60      16.8004      0.00000
     61      16.8004      0.00000
     62      17.3008      0.00000
     63      17.9690      0.00000
     64      18.1403      0.00000
     65      18.1403      0.00000
     66      18.8390      0.00000
     67      18.8854      0.00000
     68      18.8854      0.00000
     69      19.7396      0.00000
     70      20.0158      0.00000
     71      20.0158      0.00000
     72      20.6939      0.00000
     73      20.6939      0.00000
     74      20.7373      0.00000
     75      21.2429      0.00000
     76      21.7923      0.00000
     77      21.7923      0.00000
     78      22.5211      0.00000
     79      22.5211      0.00000
     80      22.6831      0.00000
     81      23.6585      0.00000
     82      24.2557      0.00000
     83      24.2557      0.00000
     84      24.8809      0.00000
     85      25.2071      0.00000
     86      25.2071      0.00000
     87      25.2768      0.00000
     88      26.1071      0.00000
     89      26.1071      0.00000
     90      26.1988      0.00000
     91      27.7135      0.00000
     92      27.7135      0.00000
     93      27.7373      0.00000
     94      28.2976      0.00000
     95      28.5674      0.00000
     96      28.5674      0.00000
     97      28.8707      0.00000
     98      29.3592      0.00000
     99      29.3592      0.00000
    100      30.4490      0.00000
    101      30.4490      0.00000
    102      30.5646      0.00000
    103      30.7338      0.00000
    104      30.7338      0.00000
    105      30.9406      0.00000
    106      31.6945      0.00000
    107      32.0303      0.00000
    108      32.0303      0.00000
    109      32.0509      0.00000
    110      32.3103      0.00000
    111      32.3103      0.00000
    112      32.9870      0.00000
    113      32.9870      0.00000
    114      33.2484      0.00000
    115      34.1363      0.00000
    116      34.1363      0.00000
    117      34.2546      0.00000
    118      34.5634      0.00000
    119      34.5634      0.00000
    120      34.7974      0.00000
    121      35.5965      0.00000
    122      35.5966      0.00000
    123      35.7808      0.00000
    124      36.4394      0.00000
    125      36.4394      0.00000
    126      37.2646      0.00000
    127      37.2662      0.00000
    128      37.3255      0.00000

 k-point    19 :      -0.4000    0.4000    0.4000
  band No.  band energies     occupation 
      1     -19.3768      2.00000
      2     -16.3442      2.00000
      3     -16.3371      2.00000
      4     -16.3371      2.00000
      5     -11.6226      2.00000
      6     -11.5847      2.00000
      7     -10.0089      2.00000
      8      -9.9700      2.00000
      9      -9.9699      2.00000
     10      -7.7850      2.00000
     11      -5.9371      2.00000
     12      -5.8187      2.00000
     13      -5.8187      2.00000
     14      -5.6157      2.00000
     15      -5.5924      2.00000
     16      -5.5922      2.00000
     17      -3.8384      2.00000
     18      -3.6974      2.00000
     19      -3.6972      2.00000
     20      -3.5033      2.00000
     21      -3.2841      2.00000
     22      -2.9201      2.00000
     23      -2.6336      2.00000
     24      -2.6332      2.00000
     25      -2.6193      2.00000
     26       1.1358      2.00000
     27       1.1567      2.00000
     28       1.1569      2.00000
     29       6.7812      0.00000
     30       6.8227      0.00000
     31       7.0404      0.00000
     32       7.0405      0.00000
     33       7.1927      0.00000
     34       7.9979      0.00000
     35       8.4207      0.00000
     36       8.7276      0.00000
     37       8.7277      0.00000
     38      10.5493      0.00000
     39      10.7177      0.00000
     40      10.7180      0.00000
     41      10.7775      0.00000
     42      10.9885      0.00000
     43      10.9890      0.00000
     44      11.3376      0.00000
     45      11.3641      0.00000
     46      11.4807      0.00000
     47      12.7823      0.00000
     48      12.8207      0.00000
     49      12.8208      0.00000
     50      13.9057      0.00000
     51      13.9860      0.00000
     52      14.0280      0.00000
     53      14.0280      0.00000
     54      14.5924      0.00000
     55      14.5927      0.00000
     56      14.6043      0.00000
     57      14.8985      0.00000
     58      15.4000      0.00000
     59      15.4915      0.00000
     60      16.6628      0.00000
     61      16.6629      0.00000
     62      16.8876      0.00000
     63      17.9225      0.00000
     64      18.4125      0.00000
     65      18.4126      0.00000
     66      18.6139      0.00000
     67      18.7302      0.00000
     68      18.9982      0.00000
     69      18.9982      0.00000
     70      19.5997      0.00000
     71      19.8799      0.00000
     72      20.6014      0.00000
     73      20.6015      0.00000
     74      20.9291      0.00000
     75      21.2831      0.00000
     76      21.7462      0.00000
     77      21.8884      0.00000
     78      21.8884      0.00000
     79      22.3598      0.00000
     80      22.6186      0.00000
     81      23.6792      0.00000
     82      23.6793      0.00000
     83      24.3734      0.00000
     84      24.9685      0.00000
     85      25.3021      0.00000
     86      25.3021      0.00000
     87      25.5731      0.00000
     88      26.5798      0.00000
     89      26.9220      0.00000
     90      27.5999      0.00000
     91      27.6000      0.00000
     92      27.8695      0.00000
     93      28.2487      0.00000
     94      28.5298      0.00000
     95      28.5299      0.00000
     96      29.3951      0.00000
     97      29.3952      0.00000
     98      29.5441      0.00000
     99      29.5591      0.00000
    100      30.1789      0.00000
    101      30.1789      0.00000
    102      30.2188      0.00000
    103      30.3215      0.00000
    104      31.3728      0.00000
    105      31.3844      0.00000
    106      31.3845      0.00000
    107      31.6386      0.00000
    108      31.6815      0.00000
    109      31.6815      0.00000
    110      32.0841      0.00000
    111      32.4864      0.00000
    112      32.6369      0.00000
    113      32.6369      0.00000
    114      33.1922      0.00000
    115      33.4397      0.00000
    116      33.7638      0.00000
    117      33.7639      0.00000
    118      33.9510      0.00000
    119      34.3531      0.00000
    120      34.7165      0.00000
    121      34.7165      0.00000
    122      35.3633      0.00000
    123      35.8717      0.00000
    124      36.5242      0.00000
    125      36.8447      0.00000
    126      36.9193      0.00000
    127      36.9251      0.00000
    128      37.0111      0.00000


--------------------------------------------------------------------------------------------------------


 soft charge-density along one line, spin component           1
         0         1         2         3         4         5         6         7         8         9
 total charge-density along one line

 pseudopotential strength for first ion, spin component:           1
 -2.503  -5.317   0.000  -0.000   0.000
 -5.317 -11.270   0.001  -0.001   0.001
  0.000   0.001  -1.417  -0.001   0.001
 -0.000  -0.001  -0.001  -1.417  -0.001
  0.000   0.001   0.001  -0.001  -1.417
 total augmentation occupancy for first ion, spin component:           1
  3.606  -0.542  -0.130   0.130  -0.129
 -0.542   0.094   0.020  -0.020   0.020
 -0.130   0.020   0.006  -0.004   0.004
  0.130  -0.020  -0.004   0.006  -0.004
 -0.129   0.020   0.004  -0.004   0.006


------------------------ aborting loop because EDIFF is reached ----------------------------------------


    FORLOC:  cpu time      0.0054: real time      0.0054
    FORNL :  cpu time      0.3014: real time      0.3014
    FORCOR:  cpu time      0.0169: real time      0.0172
    OFIELD:  cpu time      0.0040: real time      0.0040

 ---------------------------------------------------------------------------------------------

         DFTD3 V3.0 Rev 1        
 IVDW         = 11
 DF pbe       
 parameters
 VDW_S6       =    1.0000
 VDW_S8       =    0.7220
 VDW_SR       =    1.2170
 rs18     =    1.0000
 alpha6   =   14.0000
 alpha8   =   16.0000
 k1-k3    =   16.0000    1.3333   -4.0000
 VDW_RADIUS   =   50.2022 A
 VDW_CNRADIUS =   21.1671 A
 Edisp (eV)   -1.16543

 E6    (eV) :    -0.7277
 E8    (eV) :    -0.4377
 % E8        : 37.56
    FORVDW:  cpu time      0.4089: real time      0.4139

 VOLUME and BASIS-vectors are now :
 -----------------------------------------------------------------------------
  energy-cutoff  :     1000.00
  volume of cell :      168.04
      direct lattice vectors                 reciprocal lattice vectors
    -3.476325100  3.476325100  3.476325100    -0.000000000  0.143830046  0.143830046
     3.476325100 -3.476325100  3.476325100     0.143830046 -0.000000000  0.143830046
     3.476325100  3.476325100 -3.476325100     0.143830046  0.143830046 -0.000000000

  length of vectors
     6.021171697  6.021171697  6.021171697     0.203406402  0.203406402  0.203406402


 FORCES acting on ions:
    Electron-Ion                     Ewald-Force                    Non-Local-Force
 -----------------------------------------------------------------------------------------------
   -.494E+02 -.277E+02 0.277E+02   0.527E+02 0.310E+02 -.310E+02   -.330E+01 -.329E+01 0.329E+01
   0.277E+02 -.494E+02 -.277E+02   -.310E+02 0.527E+02 0.310E+02   0.329E+01 -.330E+01 -.329E+01
   0.494E+02 -.277E+02 -.277E+02   -.527E+02 0.310E+02 0.310E+02   0.330E+01 -.329E+01 -.329E+01
   0.277E+02 -.277E+02 -.494E+02   -.310E+02 0.310E+02 0.527E+02   0.329E+01 -.329E+01 -.330E+01
   -.277E+02 -.494E+02 0.277E+02   0.310E+02 0.527E+02 -.310E+02   -.329E+01 -.330E+01 0.329E+01
   -.277E+02 0.277E+02 -.494E+02   0.310E+02 -.310E+02 0.527E+02   -.329E+01 0.329E+01 -.330E+01
   0.494E+02 0.277E+02 0.277E+02   -.527E+02 -.310E+02 -.310E+02   0.330E+01 0.329E+01 0.329E+01
   0.277E+02 0.494E+02 0.277E+02   -.310E+02 -.527E+02 -.310E+02   0.329E+01 0.330E+01 0.329E+01
   -.277E+02 0.494E+02 -.277E+02   0.310E+02 -.527E+02 0.310E+02   -.329E+01 0.330E+01 -.329E+01
   -.494E+02 0.277E+02 -.277E+02   0.527E+02 -.310E+02 0.310E+02   -.330E+01 0.329E+01 -.329E+01
   -.277E+02 -.277E+02 0.494E+02   0.310E+02 0.310E+02 -.527E+02   -.329E+01 -.329E+01 0.330E+01
   0.277E+02 0.277E+02 0.494E+02   -.310E+02 -.310E+02 -.527E+02   0.329E+01 0.329E+01 0.330E+01
   -.191E+03 0.154E-03 0.154E-03   0.198E+03 -.191E-03 -.191E-03   -.647E+01 -.793E-05 -.793E-05
   0.154E-03 -.191E+03 0.154E-03   -.191E-03 0.198E+03 -.191E-03   -.793E-05 -.647E+01 -.793E-05
   0.191E+03 -.101E-03 -.101E-03   -.198E+03 0.534E-04 0.534E-04   0.647E+01 -.171E-03 -.171E-03
   0.154E-03 0.154E-03 -.191E+03   -.191E-03 -.191E-03 0.198E+03   -.793E-05 -.793E-05 -.647E+01
   -.101E-03 0.191E+03 -.101E-03   0.534E-04 -.198E+03 0.534E-04   -.171E-03 0.647E+01 -.171E-03
   -.101E-03 -.101E-03 0.191E+03   0.534E-04 0.534E-04 -.198E+03   -.171E-03 -.171E-03 0.647E+01
   -.134E+03 -.134E+03 -.134E+03   0.151E+03 0.151E+03 0.151E+03   -.172E+02 -.172E+02 -.172E+02
   0.134E+03 -.134E+03 0.134E+03   -.151E+03 0.151E+03 -.151E+03   0.172E+02 -.172E+02 0.172E+02
   0.134E+03 0.134E+03 -.134E+03   -.151E+03 -.151E+03 0.151E+03   0.172E+02 0.172E+02 -.172E+02
   -.134E+03 0.134E+03 0.134E+03   0.151E+03 -.151E+03 -.151E+03   -.172E+02 0.172E+02 0.172E+02
 -----------------------------------------------------------------------------------------------
   0.220E-02 0.220E-02 0.220E-02   -.284E-13 0.000E+00 0.000E+00   -.230E-02 -.230E-02 -.230E-02


 POSITION                                       TOTAL-FORCE (eV/Angst)
 -----------------------------------------------------------------------------------
      2.63776      0.95716     -0.31904         0.005754     -0.014643      0.014704
     -0.31904      2.63776      0.95716         0.014704      0.005754     -0.014643
      4.95296      0.95716      0.95716        -0.004509     -0.015507     -0.015507
     -0.31904      0.95716      2.63776         0.014704     -0.014643      0.005754
      0.95716      2.63776     -0.31904        -0.014643      0.005754      0.014704
      0.95716     -0.31904      2.63776        -0.014643      0.014704      0.005754
      1.47666      3.15726      3.15726        -0.004343      0.015772      0.015772
      3.15726      1.47666      3.15726         0.015772     -0.004343      0.015772
      0.95716      4.95296      0.95716        -0.015507     -0.004509     -0.015507
      2.63776     -0.31904      0.95716         0.005754      0.014704     -0.014643
      0.95716      0.95716      4.95296        -0.015507     -0.015507     -0.004509
      3.15726      3.15726      1.47666         0.015772      0.015772     -0.004343
      2.00886      0.31906      0.31906        -0.062387     -0.000039     -0.000039
      0.31906      2.00886      0.31906        -0.000039     -0.062387     -0.000039
      5.58196      0.31906      0.31906         0.058448     -0.000209     -0.000209
      0.31906      0.31906      2.00886        -0.000039     -0.000039     -0.062387
      0.31906      5.58196      0.31906        -0.000209      0.058448     -0.000209
      0.31906      0.31906      5.58196        -0.000209     -0.000209      0.058448
      1.18656      1.18656      1.18656         0.068551      0.068551      0.068551
      2.92786     -2.28974      2.92786        -0.067793      0.068163     -0.067793
      2.92786      2.92786     -2.28974        -0.067793     -0.067793      0.068163
     -2.28974      2.92786      2.92786         0.068163     -0.067793     -0.067793
 -----------------------------------------------------------------------------------
    total drift:                               -0.000098     -0.000098     -0.000098


--------------------------------------------------------------------------------------------------------



  FREE ENERGIE OF THE ION-ELECTRON SYSTEM (eV)
  ---------------------------------------------------
  free  energy   TOTEN  =      -131.43488410 eV

  energy  without entropy=     -131.43488410  energy(sigma->0) =     -131.43488410



--------------------------------------------------------------------------------------------------------


    POTLOK:  cpu time      0.0352: real time      0.0352


--------------------------------------------------------------------------------------------------------


 stress matrix after NEB project (eV)
     -1.12765      0.00000      0.00000
      0.00000     -1.12765      0.00000
      0.00000      0.00000     -1.12765
  FORCES: max atom, RMS     0.118734    0.061560
  FORCE total and by dimension    0.288743    0.068551
  Stress total and by dimension    1.953149    1.127651
     LOOP+:  cpu time    149.7191: real time    150.0485
    4ORBIT:  cpu time      0.0000: real time      0.0000

 total amount of memory used by VASP MPI-rank0    71114. kBytes
=======================================================================

   base      :      30000. kBytes
   nonl-proj :      24576. kBytes
   fftplans  :       4451. kBytes
   grid      :       6336. kBytes
   one-center:         33. kBytes
   wavefun   :       5718. kBytes

  
  
 General timing and accounting informations for this job:
 ========================================================
  
                  Total CPU time used (sec):      171.922
                            User time (sec):      170.170
                          System time (sec):        1.752
                         Elapsed time (sec):      175.695
  
                   Maximum memory used (kb):      312084.
                   Average memory used (kb):          N/A
  
                          Minor page faults:        49460
                          Major page faults:         1207
                 Voluntary context switches:         5846
